
     Program PWSCF v.7.2 starts on 14Dec2023 at  0:46:13 

     This program is part of the open-source Quantum ESPRESSO suite
     for quantum simulation of materials; please cite
         "P. Giannozzi et al., J. Phys.:Condens. Matter 21 395502 (2009);
         "P. Giannozzi et al., J. Phys.:Condens. Matter 29 465901 (2017);
         "P. Giannozzi et al., J. Chem. Phys. 152 154105 (2020);
          URL http://www.quantum-espresso.org", 
     in publications or presentations arising from this work. More details at
     http://www.quantum-espresso.org/quote

     Parallel version (MPI), running on     4 processors

     MPI processes distributed on     1 nodes
     13944 MiB available memory on the printing compute node when the environment starts
 
     Waiting for input...
     Reading input from standard input

     Current dimensions of program PWSCF are:
     Max number of different atomic species (ntypx) = 10
     Max number of k-points (npk) =  40000
     Max angular momentum in pseudopotentials (lmaxx) =  4
 
     R & G space division:  proc/nbgrp/npool/nimage =       4
     Subspace diagonalization in iterative solution of the eigenvalue problem:
     a serial algorithm will be used

 
     Parallelization info
     --------------------
     sticks:   dense  smooth     PW     G-vecs:    dense   smooth      PW
     Min         756     377    107                95412    33713    5119
     Max         757     378    109                95423    33722    5122
     Sum        3027    1511    433               381679   134875   20483
 
     Using Slab Decomposition
 


     bravais-lattice index     =            8
     lattice parameter (alat)  =       7.2193  a.u.
     unit-cell volume          =    1170.3381 (a.u.)^3
     number of atoms/cell      =           13
     number of atomic types    =            6
     number of electrons       =       130.00
     number of Kohn-Sham states=           78
     kinetic-energy cutoff     =      90.0000  Ry
     charge density cutoff     =     720.0000  Ry
     scf convergence threshold =      1.0E-08
     mixing beta               =       0.1000
     number of iterations used =            8  plain     mixing
     energy convergence thresh.=      1.0E-04
     force convergence thresh. =      1.0E-03
     press convergence thresh. =      5.0E-01
     Exchange-correlation= SLA  PW   PBE  PBE
                           (   1   4   3   4   0   0   0)
     nstep                     =           50

     Hubbard projectors: ortho-atomic
     Hubbard parameters of DFT+U (Dudarev formulation) in eV:
     U(Cu1-3d) = 10.0000
     U(Cu2-3d) = 10.0000

     Internal variables: lda_plus_u = T, lda_plus_u_kind = 0

     celldm(1)=   7.219321  celldm(2)=   1.017061  celldm(3)=   3.058265
     celldm(4)=   0.000000  celldm(5)=   0.000000  celldm(6)=   0.000000

     crystal axes: (cart. coord. in units of alat)
               a(1) = (   1.000000   0.000000   0.000000 )  
               a(2) = (   0.000000   1.017061   0.000000 )  
               a(3) = (   0.000000   0.000000   3.058265 )  

     reciprocal axes: (cart. coord. in units 2 pi/alat)
               b(1) = (  1.000000  0.000000  0.000000 )  
               b(2) = (  0.000000  0.983225  0.000000 )  
               b(3) = (  0.000000  0.000000  0.326983 )  


     PseudoPot. # 1 for Y  read from file:
     ~/q-e/pseudo/all_pbe_UPF_v1.5/y_pbe_v1.4.uspp.F.UPF
     MD5 check sum: Not computed, couldn't open file
     Pseudo is Ultrasoft + core correction, Zval = 11.0
     Generated by new atomic code, or converted to UPF format
     Using radial grid of  885 points,  6 beta functions with: 
                l(1) =   0
                l(2) =   0
                l(3) =   1
                l(4) =   1
                l(5) =   2
                l(6) =   2
     Q(r) pseudized with  8 coefficients,  rinner =    1.200   1.200   1.200
                                                       1.200   1.200

     PseudoPot. # 2 for Ba read from file:
     ~/q-e/pseudo/all_pbe_UPF_v1.5/ba_pbe_v1.uspp.F.UPF
     MD5 check sum: Not computed, couldn't open file
     Pseudo is Ultrasoft + core correction, Zval = 10.0
     Generated by new atomic code, or converted to UPF format
     Using radial grid of  907 points,  7 beta functions with: 
                l(1) =   0
                l(2) =   0
                l(3) =   1
                l(4) =   1
                l(5) =   2
                l(6) =   2
                l(7) =   3
     Q(r) pseudized with  6 coefficients,  rinner =    1.700   1.700   1.700
                                                       1.700   1.700   1.700
                                                       1.700

     PseudoPot. # 3 for Cu read from file:
     ~/q-e/pseudo/all_pbe_UPF_v1.5/cu_pbe_v1.2.uspp.F.UPF
     MD5 check sum: Not computed, couldn't open file
     Pseudo is Ultrasoft + core correction, Zval = 19.0
     Generated by new atomic code, or converted to UPF format
     Using radial grid of  867 points,  6 beta functions with: 
                l(1) =   0
                l(2) =   0
                l(3) =   1
                l(4) =   1
                l(5) =   2
                l(6) =   2
     Q(r) pseudized with  8 coefficients,  rinner =    1.150   1.150   1.150
                                                       1.150   1.150

     PseudoPot. # 4 for Cu read from file:
     ~/q-e/pseudo/all_pbe_UPF_v1.5/cu_pbe_v1.2.uspp.F.UPF
     MD5 check sum: Not computed, couldn't open file
     Pseudo is Ultrasoft + core correction, Zval = 19.0
     Generated by new atomic code, or converted to UPF format
     Using radial grid of  867 points,  6 beta functions with: 
                l(1) =   0
                l(2) =   0
                l(3) =   1
                l(4) =   1
                l(5) =   2
                l(6) =   2
     Q(r) pseudized with  8 coefficients,  rinner =    1.150   1.150   1.150
                                                       1.150   1.150

     PseudoPot. # 5 for Cu read from file:
     ~/q-e/pseudo/all_pbe_UPF_v1.5/cu_pbe_v1.2.uspp.F.UPF
     MD5 check sum: Not computed, couldn't open file
     Pseudo is Ultrasoft + core correction, Zval = 19.0
     Generated by new atomic code, or converted to UPF format
     Using radial grid of  867 points,  6 beta functions with: 
                l(1) =   0
                l(2) =   0
                l(3) =   1
                l(4) =   1
                l(5) =   2
                l(6) =   2
     Q(r) pseudized with  8 coefficients,  rinner =    1.150   1.150   1.150
                                                       1.150   1.150

     PseudoPot. # 6 for O  read from file:
     ~/q-e/pseudo/all_pbe_UPF_v1.5/o_pbe_v1.2.uspp.F.UPF
     MD5 check sum: Not computed, couldn't open file
     Pseudo is Ultrasoft + core correction, Zval =  6.0
     Generated by new atomic code, or converted to UPF format
     Using radial grid of  737 points,  5 beta functions with: 
                l(1) =   0
                l(2) =   0
                l(3) =   1
                l(4) =   1
                l(5) =   2
     Q(r) pseudized with  8 coefficients,  rinner =    0.900   0.900   0.900
                                                       0.900   0.900

     atomic species   valence    mass     pseudopotential
     Y                11.00    88.90584     Y ( 1.00)
     Ba               10.00   137.32700     Ba( 1.00)
     Cu               19.00    63.54600     Cu( 1.00)
     Cu1              19.00    63.54600     Cu( 1.00)
     Cu2              19.00    63.54600     Cu( 1.00)
     O                 6.00    15.99900     O ( 1.00)

     Starting magnetic structure 
     atomic species   magnetization
     Y               0.000
     Ba              0.000
     Cu              0.000
     Cu1             0.100
     Cu2            -0.100
     O               0.000

      4 Sym. Ops. (no inversion) found


                                    s                        frac. trans.

      isym =  1     identity                                     

 cryst.   s( 1) = (     1          0          0      )
                  (     0          1          0      )
                  (     0          0          1      )

 cart.    s( 1) = (  1.0000000  0.0000000  0.0000000 )
                  (  0.0000000  1.0000000  0.0000000 )
                  (  0.0000000  0.0000000  1.0000000 )


      isym =  2     180 deg rotation - cart. axis [0,0,1]        

 cryst.   s( 2) = (    -1          0          0      )
                  (     0         -1          0      )
                  (     0          0          1      )

 cart.    s( 2) = ( -1.0000000  0.0000000  0.0000000 )
                  (  0.0000000 -1.0000000  0.0000000 )
                  (  0.0000000  0.0000000  1.0000000 )


      isym =  3     inv. 180 deg rotation - cart. axis [0,1,0]   

 cryst.   s( 3) = (     1          0          0      )
                  (     0         -1          0      )
                  (     0          0          1      )

 cart.    s( 3) = (  1.0000000  0.0000000  0.0000000 )
                  (  0.0000000 -1.0000000  0.0000000 )
                  (  0.0000000  0.0000000  1.0000000 )


      isym =  4     inv. 180 deg rotation - cart. axis [1,0,0]   

 cryst.   s( 4) = (    -1          0          0      )
                  (     0          1          0      )
                  (     0          0          1      )

 cart.    s( 4) = ( -1.0000000  0.0000000  0.0000000 )
                  (  0.0000000  1.0000000  0.0000000 )
                  (  0.0000000  0.0000000  1.0000000 )


     point group C_2v (mm2) 
     there are  4 classes
     the character table:

       E     C2    s_v   s_v' 
A_1    1.00  1.00  1.00  1.00
A_2    1.00  1.00 -1.00 -1.00
B_1    1.00 -1.00  1.00 -1.00
B_2    1.00 -1.00 -1.00  1.00

     the symmetry operations in each class and the name of the first element:

     E        1
          identity                                               
     C2       2
          180 deg rotation - cart. axis [0,0,1]                  
     s_v      4
          inv. 180 deg rotation - cart. axis [1,0,0]             
     s_v'     3
          inv. 180 deg rotation - cart. axis [0,1,0]             

   Cartesian axes

     site n.     atom                  positions (alat units)
         1        Y      tau(   1) = (   0.5000000   0.5085307   1.5291325  )
         2        Ba     tau(   2) = (   0.5000000   0.5085307   0.5625067  )
         3        Ba     tau(   3) = (   0.5000000   0.5085307   2.4957584  )
         4        Cu     tau(   4) = (   0.0000000   0.0000000   0.0000000  )
         5        Cu1    tau(   5) = (   0.0000000   0.0000000   1.0857147  )
         6        Cu2    tau(   6) = (   0.0000000   0.0000000   1.9725504  )
         7        O      tau(   7) = (   0.5000000   0.0000000   1.1566053  )
         8        O      tau(   8) = (   0.5000000   0.0000000   1.9016598  )
         9        O      tau(   9) = (   0.0000000   0.5085307   1.1527518  )
        10        O      tau(  10) = (   0.0000000   0.5085307   1.9055132  )
        11        O      tau(  11) = (   0.0000000   0.5085307   0.0000000  )
        12        O      tau(  12) = (   0.0000000   0.0000000   0.4844292  )
        13        O      tau(  13) = (   0.0000000   0.0000000   2.5738359  )

   Crystallographic axes

     site n.     atom                  positions (cryst. coord.)
         1        Y      tau(   1) = (  0.5000000  0.5000000  0.5000000  )
         2        Ba     tau(   2) = (  0.5000000  0.5000000  0.1839300  )
         3        Ba     tau(   3) = (  0.5000000  0.5000000  0.8160700  )
         4        Cu     tau(   4) = (  0.0000000  0.0000000  0.0000000  )
         5        Cu1    tau(   5) = (  0.0000000  0.0000000  0.3550100  )
         6        Cu2    tau(   6) = (  0.0000000  0.0000000  0.6449900  )
         7        O      tau(   7) = (  0.5000000  0.0000000  0.3781900  )
         8        O      tau(   8) = (  0.5000000  0.0000000  0.6218100  )
         9        O      tau(   9) = (  0.0000000  0.5000000  0.3769300  )
        10        O      tau(  10) = (  0.0000000  0.5000000  0.6230700  )
        11        O      tau(  11) = (  0.0000000  0.5000000  0.0000000  )
        12        O      tau(  12) = (  0.0000000  0.0000000  0.1584000  )
        13        O      tau(  13) = (  0.0000000  0.0000000  0.8416000  )

     number of k points=     8  Methfessel-Paxton smearing, width (Ry)=  0.0200
                       cart. coord. in units 2pi/alat
        k(    1) = (   0.0000000   0.0000000   0.0000000), wk =   0.1250000
        k(    2) = (   0.0000000   0.0000000  -0.1634914), wk =   0.1250000
        k(    3) = (   0.0000000  -0.4916124   0.0000000), wk =   0.1250000
        k(    4) = (   0.0000000  -0.4916124  -0.1634914), wk =   0.1250000
        k(    5) = (  -0.5000000   0.0000000   0.0000000), wk =   0.1250000
        k(    6) = (  -0.5000000   0.0000000  -0.1634914), wk =   0.1250000
        k(    7) = (  -0.5000000  -0.4916124   0.0000000), wk =   0.1250000
        k(    8) = (  -0.5000000  -0.4916124  -0.1634914), wk =   0.1250000

                       cryst. coord.
        k(    1) = (   0.0000000   0.0000000   0.0000000), wk =   0.1250000
        k(    2) = (   0.0000000   0.0000000  -0.5000000), wk =   0.1250000
        k(    3) = (   0.0000000  -0.5000000   0.0000000), wk =   0.1250000
        k(    4) = (   0.0000000  -0.5000000  -0.5000000), wk =   0.1250000
        k(    5) = (  -0.5000000   0.0000000   0.0000000), wk =   0.1250000
        k(    6) = (  -0.5000000   0.0000000  -0.5000000), wk =   0.1250000
        k(    7) = (  -0.5000000  -0.5000000   0.0000000), wk =   0.1250000
        k(    8) = (  -0.5000000  -0.5000000  -0.5000000), wk =   0.1250000

     Dense  grid:   381679 G-vectors     FFT dimensions: (  64,  64, 192)

     Smooth grid:   134875 G-vectors     FFT dimensions: (  45,  45, 135)

     Dynamical RAM for                 wfc:       5.02 MB

     Dynamical RAM for     wfc (w. buffer):      85.34 MB

     Dynamical RAM for             U proj.:       0.64 MB

     Dynamical RAM for  U proj. (w. buff.):      10.94 MB

     Dynamical RAM for           str. fact:       8.74 MB

     Dynamical RAM for           local pot:       0.00 MB

     Dynamical RAM for          nlocal pot:      13.71 MB

     Dynamical RAM for                qrad:      48.22 MB

     Dynamical RAM for          rho,v,vnew:      17.74 MB

     Dynamical RAM for               rhoin:       5.91 MB

     Dynamical RAM for            rho*nmix:      46.59 MB

     Dynamical RAM for           G-vectors:       5.72 MB

     Dynamical RAM for          h,s,v(r/c):       1.11 MB

     Dynamical RAM for          <psi|beta>:       0.25 MB

     Dynamical RAM for                 psi:      10.04 MB

     Dynamical RAM for                hpsi:      10.04 MB

     Dynamical RAM for                spsi:      10.04 MB

     Dynamical RAM for      wfcinit/wfcrot:      13.90 MB

     Dynamical RAM for           addusdens:     524.17 MB

     Dynamical RAM for          addusforce:     541.75 MB

     Dynamical RAM for         addusstress:     554.02 MB

     Estimated static dynamical RAM per process >     215.50 MB

     Estimated max dynamical RAM per process >     816.12 MB

     Estimated total dynamical RAM >       3.19 GB
     Generating pointlists ...
     new r_m :   0.2582 (alat units)  1.8637 (a.u.) for type    1
     new r_m :   0.2959 (alat units)  2.1365 (a.u.) for type    2
     new r_m :   0.1998 (alat units)  1.4426 (a.u.) for type    3
     new r_m :   0.2083 (alat units)  1.5039 (a.u.) for type    4
     new r_m :   0.2083 (alat units)  1.5039 (a.u.) for type    5
     new r_m :   0.1998 (alat units)  1.4426 (a.u.) for type    6

     Initial potential from superposition of free atoms

     starting charge     126.9655, renormalised to     130.0000

     negative rho (up, down):  9.664E-02 9.664E-02

     HUBBARD ENERGY =    0.8820  (Ry)

     STARTING HUBBARD OCCUPATIONS:

     =================== HUBBARD OCCUPATIONS ===================
     ------------------------ ATOM    5 ------------------------
     Tr[ns(  5)] (up, down, total) =   5.00000  3.00000  8.00000
     Atomic magnetic moment for atom   5 =   2.00000
     SPIN  1
     eigenvalues:
       1.000  1.000  1.000  1.000  1.000
     eigenvectors (columns):
       1.000  0.000  0.000  0.000  0.000
       0.000  1.000  0.000  0.000  0.000
       0.000  0.000  1.000  0.000  0.000
       0.000  0.000  0.000  1.000  0.000
       0.000  0.000  0.000  0.000  1.000
     occupation matrix ns (before diag.):
       1.000  0.000  0.000  0.000  0.000
       0.000  1.000  0.000  0.000  0.000
       0.000  0.000  1.000  0.000  0.000
       0.000  0.000  0.000  1.000  0.000
       0.000  0.000  0.000  0.000  1.000
     SPIN  2
     eigenvalues:
       0.600  0.600  0.600  0.600  0.600
     eigenvectors (columns):
       1.000  0.000  0.000  0.000  0.000
       0.000  1.000  0.000  0.000  0.000
       0.000  0.000  1.000  0.000  0.000
       0.000  0.000  0.000  1.000  0.000
       0.000  0.000  0.000  0.000  1.000
     occupation matrix ns (before diag.):
       0.600  0.000  0.000  0.000  0.000
       0.000  0.600  0.000  0.000  0.000
       0.000  0.000  0.600  0.000  0.000
       0.000  0.000  0.000  0.600  0.000
       0.000  0.000  0.000  0.000  0.600
     ------------------------ ATOM    6 ------------------------
     Tr[ns(  6)] (up, down, total) =   3.00000  5.00000  8.00000
     Atomic magnetic moment for atom   6 =  -2.00000
     SPIN  1
     eigenvalues:
       0.600  0.600  0.600  0.600  0.600
     eigenvectors (columns):
       1.000  0.000  0.000  0.000  0.000
       0.000  1.000  0.000  0.000  0.000
       0.000  0.000  1.000  0.000  0.000
       0.000  0.000  0.000  1.000  0.000
       0.000  0.000  0.000  0.000  1.000
     occupation matrix ns (before diag.):
       0.600  0.000  0.000  0.000  0.000
       0.000  0.600  0.000  0.000  0.000
       0.000  0.000  0.600  0.000  0.000
       0.000  0.000  0.000  0.600  0.000
       0.000  0.000  0.000  0.000  0.600
     SPIN  2
     eigenvalues:
       1.000  1.000  1.000  1.000  1.000
     eigenvectors (columns):
       1.000  0.000  0.000  0.000  0.000
       0.000  1.000  0.000  0.000  0.000
       0.000  0.000  1.000  0.000  0.000
       0.000  0.000  0.000  1.000  0.000
       0.000  0.000  0.000  0.000  1.000
     occupation matrix ns (before diag.):
       1.000  0.000  0.000  0.000  0.000
       0.000  1.000  0.000  0.000  0.000
       0.000  0.000  1.000  0.000  0.000
       0.000  0.000  0.000  1.000  0.000
       0.000  0.000  0.000  0.000  1.000

     Number of occupied Hubbard levels =   16.0000

     Atomic wfc used for Hubbard projectors are orthogonalized

     Starting wfcs are  106 randomized atomic wfcs

     total cpu time spent up to now is        6.0 secs

     Self-consistent Calculation

     iteration #  1     ecut=    90.00 Ry     beta= 0.10
     Davidson diagonalization with overlap

---- Real-time Memory Report at c_bands before calling an iterative solver
           740 MiB given to the printing process from OS
             0 MiB allocation reported by mallinfo(arena+hblkhd)
         12867 MiB available memory on the node where the printing process lives
------------------
     ethr =  1.00E-02,  avg # of iterations =  2.0

     =================== HUBBARD OCCUPATIONS ===================
     ------------------------ ATOM    5 ------------------------
     Tr[ns(  5)] (up, down, total) =   4.89934  4.00823  8.90757
     Atomic magnetic moment for atom   5 =   0.89110
     SPIN  1
     eigenvalues:
       0.940  0.983  0.991  0.991  0.993
     eigenvectors (columns):
      -0.026  1.000 -0.000 -0.000  0.000
      -0.000  0.000  0.000  1.000  0.000
      -0.000  0.000  1.000 -0.000  0.000
       1.000  0.026  0.000  0.000 -0.000
       0.000 -0.000 -0.000 -0.000  1.000
     occupation matrix ns (before diag.):
       0.983 -0.000 -0.000  0.001  0.000
      -0.000  0.991 -0.000  0.000  0.000
      -0.000 -0.000  0.991  0.000  0.000
       0.001  0.000  0.000  0.940 -0.000
       0.000  0.000  0.000 -0.000  0.993
     SPIN  2
     eigenvalues:
       0.384  0.809  0.892  0.949  0.974
     eigenvectors (columns):
       0.017 -0.000 -1.000 -0.000 -0.000
       0.000 -0.000 -0.000  1.000 -0.000
       0.000 -0.000 -0.000  0.000  1.000
      -1.000 -0.000 -0.017  0.000  0.000
      -0.000  1.000 -0.000  0.000  0.000
     occupation matrix ns (before diag.):
       0.892 -0.000 -0.000  0.009  0.000
      -0.000  0.949 -0.000  0.000  0.000
      -0.000 -0.000  0.974  0.000  0.000
       0.009  0.000  0.000  0.384 -0.000
       0.000  0.000  0.000 -0.000  0.809
     ------------------------ ATOM    6 ------------------------
     Tr[ns(  6)] (up, down, total) =   4.00821  4.89941  8.90762
     Atomic magnetic moment for atom   6 =  -0.89120
     SPIN  1
     eigenvalues:
       0.384  0.809  0.892  0.949  0.974
     eigenvectors (columns):
       0.017 -0.000 -1.000 -0.000 -0.000
       0.000 -0.000 -0.000  1.000 -0.000
       0.000 -0.000 -0.000  0.000  1.000
      -1.000 -0.000 -0.017  0.000  0.000
      -0.000  1.000 -0.000  0.000  0.000
     occupation matrix ns (before diag.):
       0.892 -0.000 -0.000  0.009  0.000
      -0.000  0.949 -0.000  0.000  0.000
      -0.000 -0.000  0.974  0.000  0.000
       0.009  0.000  0.000  0.384 -0.000
       0.000  0.000  0.000 -0.000  0.809
     SPIN  2
     eigenvalues:
       0.940  0.983  0.991  0.991  0.993
     eigenvectors (columns):
      -0.025  1.000 -0.000 -0.000  0.000
      -0.000  0.000  0.000  1.000  0.000
      -0.000  0.000  1.000 -0.000  0.000
       1.000  0.025  0.000  0.000 -0.000
       0.000 -0.000 -0.000 -0.000  1.000
     occupation matrix ns (before diag.):
       0.983 -0.000 -0.000  0.001  0.000
      -0.000  0.991 -0.000  0.000  0.000
      -0.000 -0.000  0.991  0.000  0.000
       0.001  0.000  0.000  0.940 -0.000
       0.000  0.000  0.000 -0.000  0.993

     Number of occupied Hubbard levels =   17.8152

     negative rho (up, down):  9.559E-02 9.559E-02

     HUBBARD ENERGY =    0.4833  (Ry)

     total cpu time spent up to now is       14.9 secs

     total energy              =   -1671.10417726 Ry
     estimated scf accuracy    <       2.26598645 Ry

     total magnetization       =     0.00 Bohr mag/cell
     absolute magnetization    =     2.13 Bohr mag/cell

     iteration #  2     ecut=    90.00 Ry     beta= 0.10
     Davidson diagonalization with overlap

---- Real-time Memory Report at c_bands before calling an iterative solver
           892 MiB given to the printing process from OS
             0 MiB allocation reported by mallinfo(arena+hblkhd)
         12789 MiB available memory on the node where the printing process lives
------------------
     ethr =  1.74E-03,  avg # of iterations =  1.1

     =================== HUBBARD OCCUPATIONS ===================
     ------------------------ ATOM    5 ------------------------
     Tr[ns(  5)] (up, down, total) =   4.91093  4.11042  9.02136
     Atomic magnetic moment for atom   5 =   0.80051
     SPIN  1
     eigenvalues:
       0.954  0.983  0.991  0.991  0.992
     eigenvectors (columns):
      -0.032  0.999 -0.000 -0.000  0.000
      -0.000  0.000  0.000  1.000  0.000
      -0.000  0.000  1.000 -0.000  0.000
       0.999  0.032  0.000  0.000 -0.000
       0.000 -0.000 -0.000 -0.000  1.000
     occupation matrix ns (before diag.):
       0.983 -0.000 -0.000  0.001  0.000
      -0.000  0.991 -0.000  0.000  0.000
      -0.000 -0.000  0.991  0.000  0.000
       0.001  0.000  0.000  0.954 -0.000
       0.000  0.000  0.000 -0.000  0.992
     SPIN  2
     eigenvalues:
       0.190  0.969  0.983  0.984  0.985
     eigenvectors (columns):
       0.018 -1.000 -0.000 -0.000  0.000
       0.000 -0.000  1.000 -0.000  0.000
       0.000 -0.000  0.000  1.000  0.000
      -1.000 -0.018  0.000  0.000 -0.000
      -0.000  0.000 -0.000 -0.000  1.000
     occupation matrix ns (before diag.):
       0.968 -0.000 -0.000  0.014  0.000
      -0.000  0.983 -0.000  0.000  0.000
      -0.000 -0.000  0.984  0.000  0.000
       0.014  0.000  0.000  0.190 -0.000
       0.000  0.000  0.000 -0.000  0.985
     ------------------------ ATOM    6 ------------------------
     Tr[ns(  6)] (up, down, total) =   4.11042  4.91104  9.02146
     Atomic magnetic moment for atom   6 =  -0.80062
     SPIN  1
     eigenvalues:
       0.190  0.969  0.983  0.984  0.985
     eigenvectors (columns):
       0.018 -1.000 -0.000 -0.000  0.000
       0.000 -0.000  1.000 -0.000  0.000
       0.000 -0.000  0.000  1.000  0.000
      -1.000 -0.018  0.000  0.000 -0.000
      -0.000  0.000 -0.000 -0.000  1.000
     occupation matrix ns (before diag.):
       0.968 -0.000 -0.000  0.014  0.000
      -0.000  0.983 -0.000  0.000  0.000
      -0.000 -0.000  0.984  0.000  0.000
       0.014  0.000  0.000  0.190 -0.000
       0.000  0.000  0.000 -0.000  0.985
     SPIN  2
     eigenvalues:
       0.954  0.983  0.991  0.991  0.992
     eigenvectors (columns):
      -0.032  0.999 -0.000 -0.000  0.000
      -0.000  0.000  0.000  1.000  0.000
      -0.000  0.000  1.000 -0.000  0.000
       0.999  0.032  0.000  0.000 -0.000
       0.000 -0.000 -0.000 -0.000  1.000
     occupation matrix ns (before diag.):
       0.983 -0.000 -0.000  0.001  0.000
      -0.000  0.991 -0.000  0.000  0.000
      -0.000 -0.000  0.991  0.000  0.000
       0.001  0.000  0.000  0.954 -0.000
       0.000  0.000  0.000 -0.000  0.992

     Number of occupied Hubbard levels =   18.0428

     negative rho (up, down):  9.423E-02 9.423E-02

     HUBBARD ENERGY =    0.4563  (Ry)

     total cpu time spent up to now is       23.7 secs

     total energy              =   -1671.10361258 Ry
     estimated scf accuracy    <       1.43679967 Ry

     total magnetization       =     0.00 Bohr mag/cell
     absolute magnetization    =     1.87 Bohr mag/cell

     iteration #  3     ecut=    90.00 Ry     beta= 0.10
     Davidson diagonalization with overlap

---- Real-time Memory Report at c_bands before calling an iterative solver
           914 MiB given to the printing process from OS
             0 MiB allocation reported by mallinfo(arena+hblkhd)
         12775 MiB available memory on the node where the printing process lives
------------------
     ethr =  1.11E-03,  avg # of iterations =  1.8
     Minimization algorithm failed to find Fermi energy: reverting to bisection
     Possible cause: smearing is larger than the electronic band-gap.

     =================== HUBBARD OCCUPATIONS ===================
     ------------------------ ATOM    5 ------------------------
     Tr[ns(  5)] (up, down, total) =   4.91235  4.15049  9.06284
     Atomic magnetic moment for atom   5 =   0.76186
     SPIN  1
     eigenvalues:
       0.951  0.985  0.992  0.992  0.993
     eigenvectors (columns):
      -0.020  1.000 -0.000 -0.000  0.000
      -0.000  0.000  0.000  1.000  0.000
      -0.000  0.000  1.000 -0.000  0.000
       1.000  0.020  0.000  0.000 -0.000
       0.000 -0.000 -0.000 -0.000  1.000
     occupation matrix ns (before diag.):
       0.985 -0.000 -0.000  0.001  0.000
      -0.000  0.992 -0.000  0.000  0.000
      -0.000 -0.000  0.992  0.000  0.000
       0.001  0.000  0.000  0.951 -0.000
       0.000  0.000  0.000 -0.000  0.993
     SPIN  2
     eigenvalues:
       0.218  0.973  0.986  0.986  0.987
     eigenvectors (columns):
       0.020 -1.000 -0.000 -0.000  0.000
       0.000 -0.000  1.000 -0.000  0.000
       0.000 -0.000  0.000  1.000  0.000
      -1.000 -0.020  0.000 -0.000 -0.000
      -0.000  0.000 -0.000 -0.000  1.000
     occupation matrix ns (before diag.):
       0.973 -0.000 -0.000  0.015  0.000
      -0.000  0.986 -0.000  0.000  0.000
      -0.000 -0.000  0.986  0.000  0.000
       0.015  0.000  0.000  0.218 -0.000
       0.000  0.000  0.000 -0.000  0.987
     ------------------------ ATOM    6 ------------------------
     Tr[ns(  6)] (up, down, total) =   4.15042  4.91234  9.06277
     Atomic magnetic moment for atom   6 =  -0.76192
     SPIN  1
     eigenvalues:
       0.218  0.973  0.986  0.986  0.987
     eigenvectors (columns):
       0.020 -1.000 -0.000 -0.000  0.000
       0.000 -0.000  1.000 -0.000  0.000
       0.000 -0.000  0.000  1.000  0.000
      -1.000 -0.020  0.000 -0.000 -0.000
      -0.000  0.000 -0.000 -0.000  1.000
     occupation matrix ns (before diag.):
       0.973 -0.000 -0.000  0.015  0.000
      -0.000  0.986 -0.000  0.000  0.000
      -0.000 -0.000  0.986  0.000  0.000
       0.015  0.000  0.000  0.218 -0.000
       0.000  0.000  0.000 -0.000  0.987
     SPIN  2
     eigenvalues:
       0.951  0.985  0.992  0.992  0.993
     eigenvectors (columns):
      -0.020  1.000 -0.000 -0.000  0.000
      -0.000  0.000  0.000  1.000  0.000
      -0.000  0.000  1.000 -0.000  0.000
       1.000  0.020  0.000  0.000 -0.000
       0.000 -0.000 -0.000 -0.000  1.000
     occupation matrix ns (before diag.):
       0.985 -0.000 -0.000  0.001  0.000
      -0.000  0.992 -0.000  0.000  0.000
      -0.000 -0.000  0.992  0.000  0.000
       0.001  0.000  0.000  0.951 -0.000
       0.000  0.000  0.000 -0.000  0.993

     Number of occupied Hubbard levels =   18.1256

     negative rho (up, down):  9.287E-02 9.287E-02

     HUBBARD ENERGY =    0.4271  (Ry)

     total cpu time spent up to now is       33.9 secs

     total energy              =   -1671.13865436 Ry
     estimated scf accuracy    <       0.52787128 Ry

     total magnetization       =     0.00 Bohr mag/cell
     absolute magnetization    =     1.85 Bohr mag/cell

     iteration #  4     ecut=    90.00 Ry     beta= 0.10
     Davidson diagonalization with overlap

---- Real-time Memory Report at c_bands before calling an iterative solver
           916 MiB given to the printing process from OS
             0 MiB allocation reported by mallinfo(arena+hblkhd)
         12765 MiB available memory on the node where the printing process lives
------------------
     ethr =  4.06E-04,  avg # of iterations =  2.5

     =================== HUBBARD OCCUPATIONS ===================
     ------------------------ ATOM    5 ------------------------
     Tr[ns(  5)] (up, down, total) =   4.92033  4.17616  9.09649
     Atomic magnetic moment for atom   5 =   0.74416
     SPIN  1
     eigenvalues:
       0.956  0.985  0.992  0.993  0.994
     eigenvectors (columns):
      -0.021  1.000 -0.000 -0.000  0.000
      -0.000  0.000  0.000  1.000  0.000
      -0.000  0.000  1.000 -0.000  0.000
       1.000  0.021  0.000  0.000 -0.000
       0.000 -0.000 -0.000 -0.000  1.000
     occupation matrix ns (before diag.):
       0.985 -0.000 -0.000  0.001  0.000
      -0.000  0.993 -0.000  0.000  0.000
      -0.000 -0.000  0.992  0.000  0.000
       0.001  0.000  0.000  0.956 -0.000
       0.000  0.000  0.000 -0.000  0.994
     SPIN  2
     eigenvalues:
       0.235  0.977  0.988  0.988  0.989
     eigenvectors (columns):
       0.021 -1.000 -0.000 -0.000  0.000
       0.000 -0.000  0.000  1.000  0.000
       0.000 -0.000  1.000 -0.000  0.000
      -1.000 -0.021 -0.000  0.000 -0.000
      -0.000  0.000 -0.000 -0.000  1.000
     occupation matrix ns (before diag.):
       0.976 -0.000 -0.000  0.016  0.000
      -0.000  0.988 -0.000  0.000  0.000
      -0.000 -0.000  0.988  0.000  0.000
       0.016  0.000  0.000  0.235 -0.000
       0.000  0.000  0.000 -0.000  0.989
     ------------------------ ATOM    6 ------------------------
     Tr[ns(  6)] (up, down, total) =   4.17612  4.92031  9.09643
     Atomic magnetic moment for atom   6 =  -0.74419
     SPIN  1
     eigenvalues:
       0.235  0.977  0.988  0.988  0.989
     eigenvectors (columns):
       0.022 -1.000 -0.000 -0.000  0.000
       0.000 -0.000  1.000 -0.000  0.000
       0.000 -0.000  0.000  1.000  0.000
      -1.000 -0.022  0.000 -0.000 -0.000
      -0.000  0.000 -0.000 -0.000  1.000
     occupation matrix ns (before diag.):
       0.976 -0.000 -0.000  0.016  0.000
      -0.000  0.988 -0.000  0.000  0.000
      -0.000 -0.000  0.988  0.000  0.000
       0.016  0.000  0.000  0.235 -0.000
       0.000  0.000  0.000 -0.000  0.989
     SPIN  2
     eigenvalues:
       0.956  0.985  0.992  0.993  0.994
     eigenvectors (columns):
      -0.021  1.000 -0.000 -0.000  0.000
      -0.000  0.000  0.000  1.000  0.000
      -0.000  0.000  1.000 -0.000  0.000
       1.000  0.021  0.000  0.000 -0.000
       0.000 -0.000 -0.000 -0.000  1.000
     occupation matrix ns (before diag.):
       0.985 -0.000 -0.000  0.001  0.000
      -0.000  0.993 -0.000  0.000  0.000
      -0.000 -0.000  0.992  0.000  0.000
       0.001  0.000  0.000  0.956 -0.000
       0.000  0.000  0.000 -0.000  0.994

     Number of occupied Hubbard levels =   18.1929

     negative rho (up, down):  9.138E-02 9.138E-02

     HUBBARD ENERGY =    0.3902  (Ry)

     total cpu time spent up to now is       44.3 secs

     total energy              =   -1671.13100299 Ry
     estimated scf accuracy    <       0.31085126 Ry

     total magnetization       =     0.00 Bohr mag/cell
     absolute magnetization    =     1.82 Bohr mag/cell

     iteration #  5     ecut=    90.00 Ry     beta= 0.10
     Davidson diagonalization with overlap

---- Real-time Memory Report at c_bands before calling an iterative solver
           919 MiB given to the printing process from OS
             0 MiB allocation reported by mallinfo(arena+hblkhd)
         12758 MiB available memory on the node where the printing process lives
------------------
     ethr =  2.39E-04,  avg # of iterations =  5.6

     =================== HUBBARD OCCUPATIONS ===================
     ------------------------ ATOM    5 ------------------------
     Tr[ns(  5)] (up, down, total) =   4.95321  4.25690  9.21012
     Atomic magnetic moment for atom   5 =   0.69631
     SPIN  1
     eigenvalues:
       0.985  0.989  0.992  0.993  0.994
     eigenvectors (columns):
      -0.989 -0.149 -0.000  0.000  0.000
      -0.000  0.000  0.000 -1.000  0.000
      -0.000  0.000  1.000  0.000  0.000
       0.149 -0.989  0.000 -0.000 -0.000
       0.000 -0.000 -0.000  0.000  1.000
     occupation matrix ns (before diag.):
       0.985 -0.000 -0.000  0.001  0.000
      -0.000  0.993 -0.000  0.000  0.000
      -0.000 -0.000  0.992  0.000  0.000
       0.001  0.000  0.000  0.989 -0.000
       0.000  0.000  0.000 -0.000  0.994
     SPIN  2
     eigenvalues:
       0.312  0.977  0.989  0.989  0.990
     eigenvectors (columns):
      -0.022  1.000 -0.000 -0.000  0.000
      -0.000  0.000  0.000  1.000  0.000
      -0.000  0.000  1.000 -0.000  0.000
       1.000  0.022 -0.000  0.000 -0.000
       0.000 -0.000 -0.000 -0.000  1.000
     occupation matrix ns (before diag.):
       0.977 -0.000 -0.000  0.015  0.000
      -0.000  0.989 -0.000  0.000  0.000
      -0.000 -0.000  0.989  0.000  0.000
       0.015  0.000  0.000  0.313 -0.000
       0.000  0.000  0.000 -0.000  0.990
     ------------------------ ATOM    6 ------------------------
     Tr[ns(  6)] (up, down, total) =   4.25559  4.95319  9.20878
     Atomic magnetic moment for atom   6 =  -0.69761
     SPIN  1
     eigenvalues:
       0.311  0.977  0.989  0.989  0.990
     eigenvectors (columns):
      -0.022  1.000 -0.000 -0.000  0.000
      -0.000  0.000  1.000 -0.000  0.000
      -0.000  0.000  0.000  1.000  0.000
       1.000  0.022  0.000 -0.000 -0.000
       0.000 -0.000 -0.000 -0.000  1.000
     occupation matrix ns (before diag.):
       0.977 -0.000 -0.000  0.015  0.000
      -0.000  0.989 -0.000  0.000  0.000
      -0.000 -0.000  0.989  0.000  0.000
       0.015  0.000  0.000  0.311 -0.000
       0.000  0.000  0.000 -0.000  0.990
     SPIN  2
     eigenvalues:
       0.985  0.989  0.992  0.993  0.994
     eigenvectors (columns):
      -0.989 -0.149 -0.000  0.000  0.000
      -0.000  0.000  0.000 -1.000  0.000
      -0.000  0.000  1.000  0.000  0.000
       0.149 -0.989  0.000 -0.000 -0.000
       0.000 -0.000 -0.000  0.000  1.000
     occupation matrix ns (before diag.):
       0.985 -0.000 -0.000  0.001  0.000
      -0.000  0.993 -0.000  0.000  0.000
      -0.000 -0.000  0.992  0.000  0.000
       0.001  0.000  0.000  0.989 -0.000
       0.000  0.000  0.000 -0.000  0.994

     Number of occupied Hubbard levels =   18.4189

     negative rho (up, down):  9.067E-02 9.067E-02

     HUBBARD ENERGY =    0.3714  (Ry)

     total cpu time spent up to now is       55.4 secs

     total energy              =   -1671.14730939 Ry
     estimated scf accuracy    <       0.48211084 Ry

     total magnetization       =    -0.00 Bohr mag/cell
     absolute magnetization    =     1.81 Bohr mag/cell

     iteration #  6     ecut=    90.00 Ry     beta= 0.10
     Davidson diagonalization with overlap

---- Real-time Memory Report at c_bands before calling an iterative solver
           921 MiB given to the printing process from OS
             0 MiB allocation reported by mallinfo(arena+hblkhd)
         12746 MiB available memory on the node where the printing process lives
------------------
     ethr =  2.39E-04,  avg # of iterations =  1.2

     =================== HUBBARD OCCUPATIONS ===================
     ------------------------ ATOM    5 ------------------------
     Tr[ns(  5)] (up, down, total) =   4.91931  4.16643  9.08574
     Atomic magnetic moment for atom   5 =   0.75287
     SPIN  1
     eigenvalues:
       0.958  0.984  0.992  0.992  0.994
     eigenvectors (columns):
      -0.029  1.000 -0.000 -0.000  0.000
      -0.000  0.000  0.000  1.000  0.000
      -0.000  0.000  1.000 -0.000  0.000
       1.000  0.029  0.000  0.000 -0.000
       0.000 -0.000 -0.000 -0.000  1.000
     occupation matrix ns (before diag.):
       0.984 -0.000 -0.000  0.001  0.000
      -0.000  0.992 -0.000  0.000  0.000
      -0.000 -0.000  0.992  0.000  0.000
       0.001  0.000  0.000  0.958 -0.000
       0.000  0.000  0.000 -0.000  0.994
     SPIN  2
     eigenvalues:
       0.224  0.976  0.988  0.988  0.990
     eigenvectors (columns):
       0.021 -1.000 -0.000 -0.000  0.000
       0.000 -0.000  0.000  1.000  0.000
       0.000 -0.000  1.000 -0.000  0.000
      -1.000 -0.021 -0.000  0.000 -0.000
      -0.000  0.000 -0.000 -0.000  1.000
     occupation matrix ns (before diag.):
       0.976 -0.000 -0.000  0.016  0.000
      -0.000  0.988 -0.000  0.000  0.000
      -0.000 -0.000  0.988  0.000  0.000
       0.016  0.000  0.000  0.224 -0.000
       0.000  0.000  0.000 -0.000  0.990
     ------------------------ ATOM    6 ------------------------
     Tr[ns(  6)] (up, down, total) =   4.16641  4.91936  9.08577
     Atomic magnetic moment for atom   6 =  -0.75295
     SPIN  1
     eigenvalues:
       0.224  0.976  0.988  0.988  0.990
     eigenvectors (columns):
       0.021 -1.000 -0.000 -0.000  0.000
       0.000 -0.000  0.000  1.000  0.000
       0.000 -0.000  1.000 -0.000  0.000
      -1.000 -0.021 -0.000  0.000 -0.000
      -0.000  0.000 -0.000 -0.000  1.000
     occupation matrix ns (before diag.):
       0.976 -0.000 -0.000  0.016  0.000
      -0.000  0.988 -0.000  0.000  0.000
      -0.000 -0.000  0.988  0.000  0.000
       0.016  0.000  0.000  0.224 -0.000
       0.000  0.000  0.000 -0.000  0.990
     SPIN  2
     eigenvalues:
       0.958  0.984  0.992  0.992  0.994
     eigenvectors (columns):
      -0.029  1.000 -0.000 -0.000  0.000
      -0.000  0.000  0.000  1.000  0.000
      -0.000  0.000  1.000 -0.000  0.000
       1.000  0.029  0.000  0.000 -0.000
       0.000 -0.000 -0.000 -0.000  1.000
     occupation matrix ns (before diag.):
       0.984 -0.000 -0.000  0.001  0.000
      -0.000  0.992 -0.000  0.000  0.000
      -0.000 -0.000  0.992  0.000  0.000
       0.001  0.000  0.000  0.958 -0.000
       0.000  0.000  0.000 -0.000  0.994

     Number of occupied Hubbard levels =   18.1715

     negative rho (up, down):  8.978E-02 8.978E-02

     HUBBARD ENERGY =    0.3477  (Ry)

     total cpu time spent up to now is       65.0 secs

     total energy              =   -1671.16203653 Ry
     estimated scf accuracy    <       0.19133074 Ry

     total magnetization       =    -0.00 Bohr mag/cell
     absolute magnetization    =     1.83 Bohr mag/cell

     iteration #  7     ecut=    90.00 Ry     beta= 0.10
     Davidson diagonalization with overlap

---- Real-time Memory Report at c_bands before calling an iterative solver
           923 MiB given to the printing process from OS
             0 MiB allocation reported by mallinfo(arena+hblkhd)
         12735 MiB available memory on the node where the printing process lives
------------------
     ethr =  1.47E-04,  avg # of iterations =  2.3

     =================== HUBBARD OCCUPATIONS ===================
     ------------------------ ATOM    5 ------------------------
     Tr[ns(  5)] (up, down, total) =   4.92375  4.16694  9.09069
     Atomic magnetic moment for atom   5 =   0.75681
     SPIN  1
     eigenvalues:
       0.962  0.984  0.992  0.992  0.994
     eigenvectors (columns):
      -0.033  0.999 -0.000 -0.000  0.000
      -0.000  0.000  0.000  1.000  0.000
      -0.000  0.000  1.000 -0.000  0.000
       0.999  0.033  0.000  0.000 -0.000
       0.000 -0.000 -0.000 -0.000  1.000
     occupation matrix ns (before diag.):
       0.984 -0.000 -0.000  0.001  0.000
      -0.000  0.992 -0.000  0.000  0.000
      -0.000 -0.000  0.992  0.000  0.000
       0.001  0.000  0.000  0.962 -0.000
       0.000  0.000  0.000 -0.000  0.994
     SPIN  2
     eigenvalues:
       0.222  0.977  0.989  0.989  0.990
     eigenvectors (columns):
       0.021 -1.000 -0.000 -0.000  0.000
       0.000 -0.000  0.000  1.000  0.000
       0.000 -0.000  1.000 -0.000  0.000
      -1.000 -0.021 -0.000  0.000 -0.000
      -0.000  0.000 -0.000 -0.000  1.000
     occupation matrix ns (before diag.):
       0.976 -0.000 -0.000  0.016  0.000
      -0.000  0.989 -0.000  0.000  0.000
      -0.000 -0.000  0.989  0.000  0.000
       0.016  0.000  0.000  0.223 -0.000
       0.000  0.000  0.000 -0.000  0.990
     ------------------------ ATOM    6 ------------------------
     Tr[ns(  6)] (up, down, total) =   4.16693  4.92383  9.09076
     Atomic magnetic moment for atom   6 =  -0.75690
     SPIN  1
     eigenvalues:
       0.222  0.977  0.989  0.989  0.990
     eigenvectors (columns):
       0.021 -1.000 -0.000 -0.000  0.000
       0.000 -0.000  0.000  1.000  0.000
       0.000 -0.000  1.000 -0.000  0.000
      -1.000 -0.021 -0.000  0.000 -0.000
      -0.000  0.000 -0.000 -0.000  1.000
     occupation matrix ns (before diag.):
       0.976 -0.000 -0.000  0.016  0.000
      -0.000  0.989 -0.000  0.000  0.000
      -0.000 -0.000  0.989  0.000  0.000
       0.016  0.000  0.000  0.223 -0.000
       0.000  0.000  0.000 -0.000  0.990
     SPIN  2
     eigenvalues:
       0.962  0.984  0.992  0.992  0.994
     eigenvectors (columns):
      -0.033  0.999 -0.000 -0.000  0.000
      -0.000  0.000  0.000  1.000  0.000
      -0.000  0.000  1.000 -0.000  0.000
       0.999  0.033  0.000  0.000 -0.000
       0.000 -0.000 -0.000 -0.000  1.000
     occupation matrix ns (before diag.):
       0.984 -0.000 -0.000  0.001  0.000
      -0.000  0.992 -0.000  0.000  0.000
      -0.000 -0.000  0.992  0.000  0.000
       0.001  0.000  0.000  0.962 -0.000
       0.000  0.000  0.000 -0.000  0.994

     Number of occupied Hubbard levels =   18.1814

     negative rho (up, down):  8.772E-02 8.772E-02

     HUBBARD ENERGY =    0.2837  (Ry)

     total cpu time spent up to now is       75.1 secs

     total energy              =   -1671.16679723 Ry
     estimated scf accuracy    <       0.11628100 Ry

     total magnetization       =    -0.00 Bohr mag/cell
     absolute magnetization    =     1.81 Bohr mag/cell

     iteration #  8     ecut=    90.00 Ry     beta= 0.10
     Davidson diagonalization with overlap

---- Real-time Memory Report at c_bands before calling an iterative solver
           925 MiB given to the printing process from OS
             0 MiB allocation reported by mallinfo(arena+hblkhd)
         12725 MiB available memory on the node where the printing process lives
------------------
     ethr =  8.94E-05,  avg # of iterations =  3.1

     =================== HUBBARD OCCUPATIONS ===================
     ------------------------ ATOM    5 ------------------------
     Tr[ns(  5)] (up, down, total) =   4.92782  4.15259  9.08041
     Atomic magnetic moment for atom   5 =   0.77523
     SPIN  1
     eigenvalues:
       0.968  0.983  0.992  0.992  0.994
     eigenvectors (columns):
      -0.044  0.999 -0.000 -0.000  0.000
      -0.000  0.000  0.000  1.000  0.000
      -0.000  0.000  1.000 -0.000  0.000
       0.999  0.044  0.000  0.000 -0.000
       0.000 -0.000 -0.000 -0.000  1.000
     occupation matrix ns (before diag.):
       0.983 -0.000 -0.000  0.001  0.000
      -0.000  0.992 -0.000  0.000  0.000
      -0.000 -0.000  0.992  0.000  0.000
       0.001  0.000  0.000  0.968 -0.000
       0.000  0.000  0.000 -0.000  0.994
     SPIN  2
     eigenvalues:
       0.206  0.978  0.989  0.989  0.991
     eigenvectors (columns):
       0.023 -1.000 -0.000 -0.000  0.000
       0.000 -0.000  0.000  1.000  0.000
       0.000 -0.000  1.000 -0.000  0.000
      -1.000 -0.023 -0.000  0.000 -0.000
      -0.000  0.000 -0.000 -0.000  1.000
     occupation matrix ns (before diag.):
       0.977 -0.000 -0.000  0.017  0.000
      -0.000  0.989 -0.000  0.000  0.000
      -0.000 -0.000  0.989  0.000  0.000
       0.017  0.000  0.000  0.207 -0.000
       0.000  0.000  0.000 -0.000  0.991
     ------------------------ ATOM    6 ------------------------
     Tr[ns(  6)] (up, down, total) =   4.15253  4.92767  9.08020
     Atomic magnetic moment for atom   6 =  -0.77513
     SPIN  1
     eigenvalues:
       0.206  0.978  0.989  0.989  0.991
     eigenvectors (columns):
       0.023 -1.000 -0.000 -0.000  0.000
       0.000 -0.000  0.000  1.000  0.000
       0.000 -0.000  1.000 -0.000  0.000
      -1.000 -0.023 -0.000  0.000 -0.000
      -0.000  0.000 -0.000 -0.000  1.000
     occupation matrix ns (before diag.):
       0.977 -0.000 -0.000  0.017  0.000
      -0.000  0.989 -0.000  0.000  0.000
      -0.000 -0.000  0.989  0.000  0.000
       0.017  0.000  0.000  0.207 -0.000
       0.000  0.000  0.000 -0.000  0.991
     SPIN  2
     eigenvalues:
       0.968  0.983  0.992  0.992  0.994
     eigenvectors (columns):
      -0.043  0.999 -0.000 -0.000  0.000
      -0.000  0.000  0.000  1.000  0.000
      -0.000  0.000  1.000 -0.000  0.000
       0.999  0.043  0.000  0.000 -0.000
       0.000 -0.000 -0.000 -0.000  1.000
     occupation matrix ns (before diag.):
       0.983 -0.000 -0.000  0.001  0.000
      -0.000  0.992 -0.000  0.000  0.000
      -0.000 -0.000  0.992  0.000  0.000
       0.001  0.000  0.000  0.968 -0.000
       0.000  0.000  0.000 -0.000  0.994

     Number of occupied Hubbard levels =   18.1606

     negative rho (up, down):  8.661E-02 8.661E-02

     HUBBARD ENERGY =    0.2438  (Ry)

     total cpu time spent up to now is       86.0 secs

     total energy              =   -1671.16984095 Ry
     estimated scf accuracy    <       0.04514116 Ry

     total magnetization       =     0.00 Bohr mag/cell
     absolute magnetization    =     1.81 Bohr mag/cell

     iteration #  9     ecut=    90.00 Ry     beta= 0.10
     Davidson diagonalization with overlap

---- Real-time Memory Report at c_bands before calling an iterative solver
           927 MiB given to the printing process from OS
             0 MiB allocation reported by mallinfo(arena+hblkhd)
         12717 MiB available memory on the node where the printing process lives
------------------
     ethr =  3.47E-05,  avg # of iterations =  3.2

     =================== HUBBARD OCCUPATIONS ===================
     ------------------------ ATOM    5 ------------------------
     Tr[ns(  5)] (up, down, total) =   4.91641  4.13977  9.05618
     Atomic magnetic moment for atom   5 =   0.77663
     SPIN  1
     eigenvalues:
       0.959  0.981  0.991  0.991  0.994
     eigenvectors (columns):
      -0.028  1.000 -0.000 -0.000  0.000
      -0.000  0.000  0.000  1.000  0.000
      -0.000  0.000  1.000 -0.000  0.000
       1.000  0.028  0.000  0.000 -0.000
       0.000 -0.000 -0.000 -0.000  1.000
     occupation matrix ns (before diag.):
       0.981 -0.000 -0.000  0.001  0.000
      -0.000  0.991 -0.000  0.000  0.000
      -0.000 -0.000  0.991  0.000  0.000
       0.001  0.000  0.000  0.959 -0.000
       0.000  0.000  0.000 -0.000  0.994
     SPIN  2
     eigenvalues:
       0.194  0.977  0.989  0.989  0.991
     eigenvectors (columns):
       0.023 -1.000 -0.000 -0.000  0.000
       0.000 -0.000  0.000  1.000  0.000
       0.000 -0.000  1.000 -0.000  0.000
      -1.000 -0.023 -0.000  0.000 -0.000
      -0.000  0.000 -0.000 -0.000  1.000
     occupation matrix ns (before diag.):
       0.977 -0.000 -0.000  0.018  0.000
      -0.000  0.989 -0.000  0.000  0.000
      -0.000 -0.000  0.989  0.000  0.000
       0.018  0.000  0.000  0.194 -0.000
       0.000  0.000  0.000 -0.000  0.991
     ------------------------ ATOM    6 ------------------------
     Tr[ns(  6)] (up, down, total) =   4.13988  4.91645  9.05633
     Atomic magnetic moment for atom   6 =  -0.77657
     SPIN  1
     eigenvalues:
       0.194  0.977  0.989  0.989  0.991
     eigenvectors (columns):
       0.023 -1.000 -0.000 -0.000  0.000
       0.000 -0.000  0.000  1.000  0.000
       0.000 -0.000  1.000 -0.000  0.000
      -1.000 -0.023 -0.000  0.000 -0.000
      -0.000  0.000 -0.000 -0.000  1.000
     occupation matrix ns (before diag.):
       0.977 -0.000 -0.000  0.018  0.000
      -0.000  0.989 -0.000  0.000  0.000
      -0.000 -0.000  0.989  0.000  0.000
       0.018  0.000  0.000  0.194 -0.000
       0.000  0.000  0.000 -0.000  0.991
     SPIN  2
     eigenvalues:
       0.959  0.981  0.991  0.991  0.994
     eigenvectors (columns):
      -0.028  1.000 -0.000 -0.000  0.000
      -0.000  0.000  0.000  1.000  0.000
      -0.000  0.000  1.000 -0.000  0.000
       1.000  0.028  0.000  0.000 -0.000
       0.000 -0.000 -0.000 -0.000  1.000
     occupation matrix ns (before diag.):
       0.981 -0.000 -0.000  0.001  0.000
      -0.000  0.991 -0.000  0.000  0.000
      -0.000 -0.000  0.991  0.000  0.000
       0.001  0.000  0.000  0.959 -0.000
       0.000  0.000  0.000 -0.000  0.994

     Number of occupied Hubbard levels =   18.1125

     negative rho (up, down):  8.649E-02 8.649E-02

     HUBBARD ENERGY =    0.2374  (Ry)

     total cpu time spent up to now is       96.5 secs

     total energy              =   -1671.18180662 Ry
     estimated scf accuracy    <       0.05991504 Ry

     total magnetization       =    -0.00 Bohr mag/cell
     absolute magnetization    =     1.88 Bohr mag/cell

     iteration # 10     ecut=    90.00 Ry     beta= 0.10
     Davidson diagonalization with overlap

---- Real-time Memory Report at c_bands before calling an iterative solver
           929 MiB given to the printing process from OS
             0 MiB allocation reported by mallinfo(arena+hblkhd)
         12707 MiB available memory on the node where the printing process lives
------------------
     ethr =  3.47E-05,  avg # of iterations =  1.0

     =================== HUBBARD OCCUPATIONS ===================
     ------------------------ ATOM    5 ------------------------
     Tr[ns(  5)] (up, down, total) =   4.91726  4.14067  9.05793
     Atomic magnetic moment for atom   5 =   0.77659
     SPIN  1
     eigenvalues:
       0.959  0.982  0.991  0.991  0.994
     eigenvectors (columns):
      -0.028  1.000 -0.000 -0.000  0.000
      -0.000  0.000  0.000  1.000  0.000
      -0.000  0.000  1.000 -0.000  0.000
       1.000  0.028  0.000  0.000 -0.000
       0.000 -0.000 -0.000 -0.000  1.000
     occupation matrix ns (before diag.):
       0.982 -0.000 -0.000  0.001  0.000
      -0.000  0.991 -0.000  0.000  0.000
      -0.000 -0.000  0.991  0.000  0.000
       0.001  0.000  0.000  0.959 -0.000
       0.000  0.000  0.000 -0.000  0.994
     SPIN  2
     eigenvalues:
       0.194  0.978  0.989  0.989  0.992
     eigenvectors (columns):
       0.023 -1.000 -0.000 -0.000  0.000
       0.000 -0.000  0.000  1.000  0.000
       0.000 -0.000  1.000 -0.000  0.000
      -1.000 -0.023 -0.000  0.000 -0.000
      -0.000  0.000 -0.000 -0.000  1.000
     occupation matrix ns (before diag.):
       0.977 -0.000 -0.000  0.018  0.000
      -0.000  0.989 -0.000  0.000  0.000
      -0.000 -0.000  0.989  0.000  0.000
       0.018  0.000  0.000  0.194 -0.000
       0.000  0.000  0.000 -0.000  0.992
     ------------------------ ATOM    6 ------------------------
     Tr[ns(  6)] (up, down, total) =   4.14075  4.91730  9.05805
     Atomic magnetic moment for atom   6 =  -0.77656
     SPIN  1
     eigenvalues:
       0.194  0.978  0.989  0.989  0.992
     eigenvectors (columns):
       0.023 -1.000 -0.000 -0.000  0.000
       0.000 -0.000  0.000  1.000  0.000
       0.000 -0.000  1.000 -0.000  0.000
      -1.000 -0.023 -0.000  0.000 -0.000
      -0.000  0.000 -0.000 -0.000  1.000
     occupation matrix ns (before diag.):
       0.977 -0.000 -0.000  0.018  0.000
      -0.000  0.989 -0.000  0.000  0.000
      -0.000 -0.000  0.989  0.000  0.000
       0.018  0.000  0.000  0.194 -0.000
       0.000  0.000  0.000 -0.000  0.992
     SPIN  2
     eigenvalues:
       0.959  0.982  0.991  0.991  0.994
     eigenvectors (columns):
      -0.028  1.000 -0.000 -0.000  0.000
      -0.000  0.000  0.000  1.000  0.000
      -0.000  0.000  1.000 -0.000  0.000
       1.000  0.028  0.000  0.000 -0.000
       0.000 -0.000 -0.000 -0.000  1.000
     occupation matrix ns (before diag.):
       0.982 -0.000 -0.000  0.001  0.000
      -0.000  0.991 -0.000  0.000  0.000
      -0.000 -0.000  0.991  0.000  0.000
       0.001  0.000  0.000  0.959 -0.000
       0.000  0.000  0.000 -0.000  0.994

     Number of occupied Hubbard levels =   18.1160

     negative rho (up, down):  8.629E-02 8.629E-02

     HUBBARD ENERGY =    0.2230  (Ry)

     total cpu time spent up to now is      106.4 secs

     total energy              =   -1671.17725098 Ry
     estimated scf accuracy    <       0.04325100 Ry

     total magnetization       =    -0.00 Bohr mag/cell
     absolute magnetization    =     1.89 Bohr mag/cell

     iteration # 11     ecut=    90.00 Ry     beta= 0.10
     Davidson diagonalization with overlap

---- Real-time Memory Report at c_bands before calling an iterative solver
           931 MiB given to the printing process from OS
             0 MiB allocation reported by mallinfo(arena+hblkhd)
         12711 MiB available memory on the node where the printing process lives
------------------
     ethr =  3.33E-05,  avg # of iterations =  1.3
     Minimization algorithm failed to find Fermi energy: reverting to bisection
     Possible cause: smearing is larger than the electronic band-gap.

     =================== HUBBARD OCCUPATIONS ===================
     ------------------------ ATOM    5 ------------------------
     Tr[ns(  5)] (up, down, total) =   4.91906  4.14185  9.06091
     Atomic magnetic moment for atom   5 =   0.77721
     SPIN  1
     eigenvalues:
       0.960  0.982  0.991  0.992  0.994
     eigenvectors (columns):
      -0.024  1.000 -0.000 -0.000  0.000
      -0.000  0.000  0.000  1.000  0.000
      -0.000  0.000  1.000 -0.000  0.000
       1.000  0.024  0.000  0.000 -0.000
       0.000 -0.000 -0.000 -0.000  1.000
     occupation matrix ns (before diag.):
       0.982 -0.000 -0.000  0.001  0.000
      -0.000  0.992 -0.000  0.000  0.000
      -0.000 -0.000  0.991  0.000  0.000
       0.001  0.000  0.000  0.960 -0.000
       0.000  0.000  0.000 -0.000  0.994
     SPIN  2
     eigenvalues:
       0.192  0.979  0.989  0.989  0.992
     eigenvectors (columns):
       0.024 -1.000 -0.000 -0.000  0.000
       0.000 -0.000  0.000  1.000  0.000
       0.000 -0.000  1.000 -0.000  0.000
      -1.000 -0.024 -0.000  0.000 -0.000
      -0.000  0.000 -0.000 -0.000  1.000
     occupation matrix ns (before diag.):
       0.978 -0.000 -0.000  0.019  0.000
      -0.000  0.989 -0.000  0.000  0.000
      -0.000 -0.000  0.989  0.000  0.000
       0.019  0.000  0.000  0.193 -0.000
       0.000  0.000  0.000 -0.000  0.992
     ------------------------ ATOM    6 ------------------------
     Tr[ns(  6)] (up, down, total) =   4.14187  4.91912  9.06099
     Atomic magnetic moment for atom   6 =  -0.77724
     SPIN  1
     eigenvalues:
       0.192  0.979  0.989  0.989  0.992
     eigenvectors (columns):
       0.024 -1.000 -0.000 -0.000  0.000
       0.000 -0.000  0.000  1.000  0.000
       0.000 -0.000  1.000 -0.000  0.000
      -1.000 -0.024 -0.000 -0.000 -0.000
      -0.000  0.000 -0.000 -0.000  1.000
     occupation matrix ns (before diag.):
       0.978 -0.000 -0.000  0.019  0.000
      -0.000  0.989 -0.000  0.000  0.000
      -0.000 -0.000  0.989  0.000  0.000
       0.019  0.000  0.000  0.193 -0.000
       0.000  0.000  0.000 -0.000  0.992
     SPIN  2
     eigenvalues:
       0.960  0.982  0.991  0.992  0.994
     eigenvectors (columns):
      -0.024  1.000 -0.000 -0.000  0.000
      -0.000  0.000  0.000  1.000  0.000
      -0.000  0.000  1.000 -0.000  0.000
       1.000  0.024  0.000  0.000 -0.000
       0.000 -0.000 -0.000 -0.000  1.000
     occupation matrix ns (before diag.):
       0.982 -0.000 -0.000  0.001  0.000
      -0.000  0.992 -0.000  0.000  0.000
      -0.000 -0.000  0.991  0.000  0.000
       0.001  0.000  0.000  0.960 -0.000
       0.000  0.000  0.000 -0.000  0.994

     Number of occupied Hubbard levels =   18.1219

     negative rho (up, down):  8.629E-02 8.629E-02

     HUBBARD ENERGY =    0.2156  (Ry)

     total cpu time spent up to now is      116.4 secs

     total energy              =   -1671.17619337 Ry
     estimated scf accuracy    <       0.01900152 Ry

     total magnetization       =    -0.00 Bohr mag/cell
     absolute magnetization    =     1.90 Bohr mag/cell

     iteration # 12     ecut=    90.00 Ry     beta= 0.10
     Davidson diagonalization with overlap

---- Real-time Memory Report at c_bands before calling an iterative solver
           931 MiB given to the printing process from OS
             0 MiB allocation reported by mallinfo(arena+hblkhd)
         12708 MiB available memory on the node where the printing process lives
------------------
     ethr =  1.46E-05,  avg # of iterations =  4.8

     =================== HUBBARD OCCUPATIONS ===================
     ------------------------ ATOM    5 ------------------------
     Tr[ns(  5)] (up, down, total) =   4.93334  4.14211  9.07545
     Atomic magnetic moment for atom   5 =   0.79123
     SPIN  1
     eigenvalues:
       0.973  0.983  0.992  0.992  0.994
     eigenvectors (columns):
      -0.061  0.998 -0.000 -0.000  0.000
      -0.000  0.000  0.000  1.000  0.000
      -0.000  0.000  1.000 -0.000  0.000
       0.998  0.061  0.000  0.000 -0.000
       0.000 -0.000 -0.000 -0.000  1.000
     occupation matrix ns (before diag.):
       0.983 -0.000 -0.000  0.001  0.000
      -0.000  0.992 -0.000  0.000  0.000
      -0.000 -0.000  0.992  0.000  0.000
       0.001  0.000  0.000  0.973 -0.000
       0.000  0.000  0.000 -0.000  0.994
     SPIN  2
     eigenvalues:
       0.191  0.979  0.990  0.990  0.992
     eigenvectors (columns):
       0.024 -1.000 -0.000 -0.000  0.000
       0.000 -0.000  0.000  1.000  0.000
       0.000 -0.000  1.000 -0.000  0.000
      -1.000 -0.024 -0.000 -0.000  0.000
      -0.000  0.000 -0.000 -0.000  1.000
     occupation matrix ns (before diag.):
       0.979 -0.000 -0.000  0.019  0.000
      -0.000  0.990 -0.000  0.000  0.000
      -0.000 -0.000  0.990  0.000  0.000
       0.019  0.000  0.000  0.191 -0.000
       0.000  0.000  0.000 -0.000  0.992
     ------------------------ ATOM    6 ------------------------
     Tr[ns(  6)] (up, down, total) =   4.14208  4.93347  9.07555
     Atomic magnetic moment for atom   6 =  -0.79139
     SPIN  1
     eigenvalues:
       0.191  0.979  0.990  0.990  0.992
     eigenvectors (columns):
       0.024 -1.000 -0.000 -0.000  0.000
       0.000 -0.000  0.000  1.000  0.000
       0.000 -0.000  1.000 -0.000  0.000
      -1.000 -0.024 -0.000 -0.000  0.000
      -0.000  0.000 -0.000 -0.000  1.000
     occupation matrix ns (before diag.):
       0.979 -0.000 -0.000  0.019  0.000
      -0.000  0.990 -0.000  0.000  0.000
      -0.000 -0.000  0.990  0.000  0.000
       0.019  0.000  0.000  0.191 -0.000
       0.000  0.000  0.000 -0.000  0.992
     SPIN  2
     eigenvalues:
       0.973  0.983  0.992  0.992  0.994
     eigenvectors (columns):
      -0.062  0.998 -0.000 -0.000  0.000
      -0.000  0.000  0.000  1.000  0.000
      -0.000  0.000  1.000 -0.000  0.000
       0.998  0.062  0.000  0.000 -0.000
       0.000 -0.000 -0.000 -0.000  1.000
     occupation matrix ns (before diag.):
       0.983 -0.000 -0.000  0.001  0.000
      -0.000  0.992 -0.000  0.000  0.000
      -0.000 -0.000  0.992  0.000  0.000
       0.001  0.000  0.000  0.973 -0.000
       0.000  0.000  0.000 -0.000  0.994

     Number of occupied Hubbard levels =   18.1510

     negative rho (up, down):  8.629E-02 8.629E-02

     HUBBARD ENERGY =    0.2152  (Ry)

     total cpu time spent up to now is      127.3 secs

     total energy              =   -1671.17806874 Ry
     estimated scf accuracy    <       0.01427804 Ry

     total magnetization       =    -0.00 Bohr mag/cell
     absolute magnetization    =     1.83 Bohr mag/cell

     iteration # 13     ecut=    90.00 Ry     beta= 0.10
     Davidson diagonalization with overlap

---- Real-time Memory Report at c_bands before calling an iterative solver
           931 MiB given to the printing process from OS
             0 MiB allocation reported by mallinfo(arena+hblkhd)
         12709 MiB available memory on the node where the printing process lives
------------------
     ethr =  1.10E-05,  avg # of iterations =  1.0

     =================== HUBBARD OCCUPATIONS ===================
     ------------------------ ATOM    5 ------------------------
     Tr[ns(  5)] (up, down, total) =   4.92897  4.14217  9.07114
     Atomic magnetic moment for atom   5 =   0.78680
     SPIN  1
     eigenvalues:
       0.969  0.983  0.992  0.992  0.994
     eigenvectors (columns):
      -0.041  0.999 -0.000 -0.000  0.000
      -0.000  0.000  0.000  1.000  0.000
      -0.000  0.000  1.000 -0.000  0.000
       0.999  0.041  0.000  0.000 -0.000
       0.000 -0.000 -0.000 -0.000  1.000
     occupation matrix ns (before diag.):
       0.983 -0.000 -0.000  0.001  0.000
      -0.000  0.992 -0.000  0.000  0.000
      -0.000 -0.000  0.992  0.000  0.000
       0.001  0.000  0.000  0.969 -0.000
       0.000  0.000  0.000 -0.000  0.994
     SPIN  2
     eigenvalues:
       0.191  0.979  0.990  0.990  0.992
     eigenvectors (columns):
       0.024 -1.000 -0.000 -0.000  0.000
       0.000 -0.000  0.000  1.000  0.000
       0.000 -0.000  1.000 -0.000  0.000
      -1.000 -0.024 -0.000 -0.000  0.000
      -0.000  0.000 -0.000 -0.000  1.000
     occupation matrix ns (before diag.):
       0.979 -0.000 -0.000  0.019  0.000
      -0.000  0.990 -0.000  0.000  0.000
      -0.000 -0.000  0.990  0.000  0.000
       0.019  0.000  0.000  0.191 -0.000
       0.000  0.000  0.000 -0.000  0.992
     ------------------------ ATOM    6 ------------------------
     Tr[ns(  6)] (up, down, total) =   4.14213  4.92905  9.07119
     Atomic magnetic moment for atom   6 =  -0.78692
     SPIN  1
     eigenvalues:
       0.191  0.979  0.990  0.990  0.992
     eigenvectors (columns):
       0.024 -1.000 -0.000 -0.000  0.000
       0.000 -0.000  0.000  1.000  0.000
       0.000 -0.000  1.000 -0.000  0.000
      -1.000 -0.024 -0.000  0.000  0.000
      -0.000  0.000 -0.000 -0.000  1.000
     occupation matrix ns (before diag.):
       0.979 -0.000 -0.000  0.019  0.000
      -0.000  0.990 -0.000  0.000  0.000
      -0.000 -0.000  0.990  0.000  0.000
       0.019  0.000  0.000  0.191 -0.000
       0.000  0.000  0.000 -0.000  0.992
     SPIN  2
     eigenvalues:
       0.969  0.983  0.992  0.992  0.994
     eigenvectors (columns):
      -0.042  0.999 -0.000 -0.000  0.000
      -0.000  0.000  0.000  1.000  0.000
      -0.000  0.000  1.000 -0.000  0.000
       0.999  0.042  0.000  0.000 -0.000
       0.000 -0.000 -0.000 -0.000  1.000
     occupation matrix ns (before diag.):
       0.983 -0.000 -0.000  0.001  0.000
      -0.000  0.992 -0.000  0.000  0.000
      -0.000 -0.000  0.992  0.000  0.000
       0.001  0.000  0.000  0.969 -0.000
       0.000  0.000  0.000 -0.000  0.994

     Number of occupied Hubbard levels =   18.1423

     negative rho (up, down):  8.623E-02 8.623E-02

     HUBBARD ENERGY =    0.2109  (Ry)

     total cpu time spent up to now is      137.3 secs

     total energy              =   -1671.17841481 Ry
     estimated scf accuracy    <       0.00363890 Ry

     total magnetization       =    -0.00 Bohr mag/cell
     absolute magnetization    =     1.86 Bohr mag/cell

     iteration # 14     ecut=    90.00 Ry     beta= 0.10
     Davidson diagonalization with overlap

---- Real-time Memory Report at c_bands before calling an iterative solver
           931 MiB given to the printing process from OS
             0 MiB allocation reported by mallinfo(arena+hblkhd)
         12702 MiB available memory on the node where the printing process lives
------------------
     ethr =  2.80E-06,  avg # of iterations =  3.1

     =================== HUBBARD OCCUPATIONS ===================
     ------------------------ ATOM    5 ------------------------
     Tr[ns(  5)] (up, down, total) =   4.93270  4.14110  9.07379
     Atomic magnetic moment for atom   5 =   0.79160
     SPIN  1
     eigenvalues:
       0.972  0.983  0.992  0.992  0.994
     eigenvectors (columns):
      -0.054  0.999 -0.000 -0.000  0.000
      -0.000  0.000  0.000  1.000  0.000
      -0.000  0.000  1.000 -0.000  0.000
       0.999  0.054  0.000  0.000 -0.000
       0.000 -0.000 -0.000 -0.000  1.000
     occupation matrix ns (before diag.):
       0.983 -0.000 -0.000  0.001  0.000
      -0.000  0.992 -0.000  0.000  0.000
      -0.000 -0.000  0.992  0.000  0.000
       0.001  0.000  0.000  0.972 -0.000
       0.000  0.000  0.000 -0.000  0.994
     SPIN  2
     eigenvalues:
       0.189  0.980  0.990  0.990  0.992
     eigenvectors (columns):
       0.025 -1.000 -0.000 -0.000  0.000
       0.000 -0.000  0.000  1.000  0.000
       0.000 -0.000  1.000 -0.000  0.000
      -1.000 -0.025 -0.000 -0.000  0.000
      -0.000  0.000 -0.000 -0.000  1.000
     occupation matrix ns (before diag.):
       0.979 -0.000 -0.000  0.020  0.000
      -0.000  0.990 -0.000  0.000  0.000
      -0.000 -0.000  0.990  0.000  0.000
       0.020  0.000  0.000  0.190 -0.000
       0.000  0.000  0.000 -0.000  0.992
     ------------------------ ATOM    6 ------------------------
     Tr[ns(  6)] (up, down, total) =   4.14108  4.93275  9.07384
     Atomic magnetic moment for atom   6 =  -0.79167
     SPIN  1
     eigenvalues:
       0.189  0.980  0.990  0.990  0.992
     eigenvectors (columns):
       0.025 -1.000 -0.000 -0.000  0.000
       0.000 -0.000  0.000  1.000  0.000
       0.000 -0.000  1.000 -0.000  0.000
      -1.000 -0.025 -0.000 -0.000  0.000
      -0.000  0.000 -0.000 -0.000  1.000
     occupation matrix ns (before diag.):
       0.979 -0.000 -0.000  0.020  0.000
      -0.000  0.990 -0.000  0.000  0.000
      -0.000 -0.000  0.990  0.000  0.000
       0.020  0.000  0.000  0.190 -0.000
       0.000  0.000  0.000 -0.000  0.992
     SPIN  2
     eigenvalues:
       0.972  0.983  0.992  0.992  0.994
     eigenvectors (columns):
      -0.054  0.999 -0.000 -0.000  0.000
      -0.000  0.000  0.000  1.000  0.000
      -0.000  0.000  1.000 -0.000  0.000
       0.999  0.054  0.000  0.000 -0.000
       0.000 -0.000 -0.000 -0.000  1.000
     occupation matrix ns (before diag.):
       0.983 -0.000 -0.000  0.001  0.000
      -0.000  0.992 -0.000  0.000  0.000
      -0.000 -0.000  0.992  0.000  0.000
       0.001  0.000  0.000  0.972 -0.000
       0.000  0.000  0.000 -0.000  0.994

     Number of occupied Hubbard levels =   18.1476

     negative rho (up, down):  8.619E-02 8.619E-02

     HUBBARD ENERGY =    0.2021  (Ry)

     total cpu time spent up to now is      148.0 secs

     total energy              =   -1671.17861861 Ry
     estimated scf accuracy    <       0.00883876 Ry

     total magnetization       =    -0.00 Bohr mag/cell
     absolute magnetization    =     1.84 Bohr mag/cell

     iteration # 15     ecut=    90.00 Ry     beta= 0.10
     Davidson diagonalization with overlap

---- Real-time Memory Report at c_bands before calling an iterative solver
           931 MiB given to the printing process from OS
             0 MiB allocation reported by mallinfo(arena+hblkhd)
         12708 MiB available memory on the node where the printing process lives
------------------
     ethr =  2.80E-06,  avg # of iterations =  1.1

     =================== HUBBARD OCCUPATIONS ===================
     ------------------------ ATOM    5 ------------------------
     Tr[ns(  5)] (up, down, total) =   4.93102  4.13735  9.06836
     Atomic magnetic moment for atom   5 =   0.79367
     SPIN  1
     eigenvalues:
       0.970  0.983  0.992  0.992  0.994
     eigenvectors (columns):
      -0.044  0.999 -0.000 -0.000  0.000
      -0.000  0.000  0.000  1.000  0.000
      -0.000  0.000  1.000 -0.000  0.000
       0.999  0.044  0.000  0.000 -0.000
       0.000 -0.000 -0.000 -0.000  1.000
     occupation matrix ns (before diag.):
       0.983 -0.000 -0.000  0.001  0.000
      -0.000  0.992 -0.000  0.000  0.000
      -0.000 -0.000  0.992  0.000  0.000
       0.001  0.000  0.000  0.970 -0.000
       0.000  0.000  0.000 -0.000  0.994
     SPIN  2
     eigenvalues:
       0.185  0.980  0.990  0.990  0.992
     eigenvectors (columns):
       0.025 -1.000 -0.000 -0.000  0.000
       0.000 -0.000  0.000  1.000  0.000
       0.000 -0.000  1.000 -0.000  0.000
      -1.000 -0.025 -0.000 -0.000  0.000
      -0.000  0.000 -0.000 -0.000  1.000
     occupation matrix ns (before diag.):
       0.979 -0.000 -0.000  0.020  0.000
      -0.000  0.990 -0.000  0.000  0.000
      -0.000 -0.000  0.990  0.000  0.000
       0.020  0.000  0.000  0.186 -0.000
       0.000  0.000  0.000 -0.000  0.992
     ------------------------ ATOM    6 ------------------------
     Tr[ns(  6)] (up, down, total) =   4.13740  4.93107  9.06847
     Atomic magnetic moment for atom   6 =  -0.79367
     SPIN  1
     eigenvalues:
       0.185  0.980  0.990  0.990  0.992
     eigenvectors (columns):
       0.025 -1.000 -0.000 -0.000  0.000
       0.000 -0.000  0.000  1.000  0.000
       0.000 -0.000  1.000 -0.000  0.000
      -1.000 -0.025 -0.000 -0.000  0.000
      -0.000  0.000 -0.000 -0.000  1.000
     occupation matrix ns (before diag.):
       0.979 -0.000 -0.000  0.020  0.000
      -0.000  0.990 -0.000  0.000  0.000
      -0.000 -0.000  0.990  0.000  0.000
       0.020  0.000  0.000  0.186 -0.000
       0.000  0.000  0.000 -0.000  0.992
     SPIN  2
     eigenvalues:
       0.970  0.983  0.992  0.992  0.994
     eigenvectors (columns):
      -0.044  0.999 -0.000 -0.000  0.000
      -0.000  0.000  0.000  1.000  0.000
      -0.000  0.000  1.000 -0.000  0.000
       0.999  0.044  0.000  0.000 -0.000
       0.000 -0.000 -0.000 -0.000  1.000
     occupation matrix ns (before diag.):
       0.983 -0.000 -0.000  0.001  0.000
      -0.000  0.992 -0.000  0.000  0.000
      -0.000 -0.000  0.992  0.000  0.000
       0.001  0.000  0.000  0.970 -0.000
       0.000  0.000  0.000 -0.000  0.994

     Number of occupied Hubbard levels =   18.1368

     negative rho (up, down):  8.620E-02 8.620E-02

     HUBBARD ENERGY =    0.2017  (Ry)

     total cpu time spent up to now is      157.8 secs

     total energy              =   -1671.17875545 Ry
     estimated scf accuracy    <       0.00365861 Ry

     total magnetization       =    -0.00 Bohr mag/cell
     absolute magnetization    =     1.87 Bohr mag/cell

     iteration # 16     ecut=    90.00 Ry     beta= 0.10
     Davidson diagonalization with overlap

---- Real-time Memory Report at c_bands before calling an iterative solver
           931 MiB given to the printing process from OS
             0 MiB allocation reported by mallinfo(arena+hblkhd)
         12705 MiB available memory on the node where the printing process lives
------------------
     ethr =  2.80E-06,  avg # of iterations =  1.2

     =================== HUBBARD OCCUPATIONS ===================
     ------------------------ ATOM    5 ------------------------
     Tr[ns(  5)] (up, down, total) =   4.92979  4.13723  9.06702
     Atomic magnetic moment for atom   5 =   0.79255
     SPIN  1
     eigenvalues:
       0.969  0.983  0.992  0.992  0.994
     eigenvectors (columns):
      -0.039  0.999 -0.000 -0.000  0.000
      -0.000  0.000  0.000  1.000  0.000
      -0.000  0.000  1.000 -0.000  0.000
       0.999  0.039  0.000  0.000 -0.000
       0.000 -0.000 -0.000 -0.000  1.000
     occupation matrix ns (before diag.):
       0.983 -0.000 -0.000  0.001  0.000
      -0.000  0.992 -0.000  0.000  0.000
      -0.000 -0.000  0.992  0.000  0.000
       0.001  0.000  0.000  0.969 -0.000
       0.000  0.000  0.000 -0.000  0.994
     SPIN  2
     eigenvalues:
       0.185  0.980  0.990  0.990  0.992
     eigenvectors (columns):
       0.026 -1.000 -0.000 -0.000  0.000
       0.000 -0.000  0.000  1.000  0.000
       0.000 -0.000  1.000 -0.000  0.000
      -1.000 -0.026 -0.000 -0.000  0.000
      -0.000  0.000 -0.000 -0.000  1.000
     occupation matrix ns (before diag.):
       0.979 -0.000 -0.000  0.020  0.000
      -0.000  0.990 -0.000  0.000  0.000
      -0.000 -0.000  0.990  0.000  0.000
       0.020  0.000  0.000  0.186 -0.000
       0.000  0.000  0.000 -0.000  0.992
     ------------------------ ATOM    6 ------------------------
     Tr[ns(  6)] (up, down, total) =   4.13725  4.92979  9.06704
     Atomic magnetic moment for atom   6 =  -0.79253
     SPIN  1
     eigenvalues:
       0.185  0.980  0.990  0.990  0.992
     eigenvectors (columns):
       0.026 -1.000 -0.000 -0.000  0.000
       0.000 -0.000  0.000  1.000  0.000
       0.000 -0.000  1.000 -0.000  0.000
      -1.000 -0.026 -0.000 -0.000  0.000
      -0.000  0.000 -0.000 -0.000  1.000
     occupation matrix ns (before diag.):
       0.979 -0.000 -0.000  0.020  0.000
      -0.000  0.990 -0.000  0.000  0.000
      -0.000 -0.000  0.990  0.000  0.000
       0.020  0.000  0.000  0.186 -0.000
       0.000  0.000  0.000 -0.000  0.992
     SPIN  2
     eigenvalues:
       0.969  0.983  0.992  0.992  0.994
     eigenvectors (columns):
      -0.039  0.999 -0.000 -0.000  0.000
      -0.000  0.000  0.000  1.000  0.000
      -0.000  0.000  1.000 -0.000  0.000
       0.999  0.039  0.000  0.000 -0.000
       0.000 -0.000 -0.000 -0.000  1.000
     occupation matrix ns (before diag.):
       0.983 -0.000 -0.000  0.001  0.000
      -0.000  0.992 -0.000  0.000  0.000
      -0.000 -0.000  0.992  0.000  0.000
       0.001  0.000  0.000  0.969 -0.000
       0.000  0.000  0.000 -0.000  0.994

     Number of occupied Hubbard levels =   18.1341

     negative rho (up, down):  8.621E-02 8.621E-02

     HUBBARD ENERGY =    0.2014  (Ry)

     total cpu time spent up to now is      167.8 secs

     total energy              =   -1671.17883321 Ry
     estimated scf accuracy    <       0.00087230 Ry

     total magnetization       =    -0.00 Bohr mag/cell
     absolute magnetization    =     1.88 Bohr mag/cell

     iteration # 17     ecut=    90.00 Ry     beta= 0.10
     Davidson diagonalization with overlap

---- Real-time Memory Report at c_bands before calling an iterative solver
           931 MiB given to the printing process from OS
             0 MiB allocation reported by mallinfo(arena+hblkhd)
         12702 MiB available memory on the node where the printing process lives
------------------
     ethr =  6.71E-07,  avg # of iterations =  3.1

     =================== HUBBARD OCCUPATIONS ===================
     ------------------------ ATOM    5 ------------------------
     Tr[ns(  5)] (up, down, total) =   4.92906  4.13660  9.06566
     Atomic magnetic moment for atom   5 =   0.79247
     SPIN  1
     eigenvalues:
       0.968  0.983  0.992  0.992  0.994
     eigenvectors (columns):
      -0.037  0.999 -0.000 -0.000  0.000
      -0.000  0.000  0.000  1.000  0.000
      -0.000  0.000  1.000 -0.000  0.000
       0.999  0.037  0.000  0.000 -0.000
       0.000 -0.000 -0.000 -0.000  1.000
     occupation matrix ns (before diag.):
       0.983 -0.000 -0.000  0.001  0.000
      -0.000  0.992 -0.000  0.000  0.000
      -0.000 -0.000  0.992  0.000  0.000
       0.001  0.000  0.000  0.968 -0.000
       0.000  0.000  0.000 -0.000  0.994
     SPIN  2
     eigenvalues:
       0.184  0.980  0.990  0.990  0.992
     eigenvectors (columns):
       0.026 -1.000 -0.000 -0.000  0.000
       0.000 -0.000  0.000  1.000  0.000
       0.000 -0.000  1.000 -0.000  0.000
      -1.000 -0.026 -0.000 -0.000  0.000
      -0.000  0.000 -0.000 -0.000  1.000
     occupation matrix ns (before diag.):
       0.979 -0.000 -0.000  0.020  0.000
      -0.000  0.990 -0.000  0.000  0.000
      -0.000 -0.000  0.990  0.000  0.000
       0.020  0.000  0.000  0.185 -0.000
       0.000  0.000  0.000 -0.000  0.992
     ------------------------ ATOM    6 ------------------------
     Tr[ns(  6)] (up, down, total) =   4.13660  4.92908  9.06569
     Atomic magnetic moment for atom   6 =  -0.79248
     SPIN  1
     eigenvalues:
       0.184  0.980  0.990  0.990  0.992
     eigenvectors (columns):
       0.026 -1.000 -0.000 -0.000  0.000
       0.000 -0.000  0.000  1.000  0.000
       0.000 -0.000  1.000 -0.000  0.000
      -1.000 -0.026 -0.000  0.000  0.000
      -0.000  0.000 -0.000 -0.000  1.000
     occupation matrix ns (before diag.):
       0.979 -0.000 -0.000  0.020  0.000
      -0.000  0.990 -0.000  0.000  0.000
      -0.000 -0.000  0.990  0.000  0.000
       0.020  0.000  0.000  0.185 -0.000
       0.000  0.000  0.000 -0.000  0.992
     SPIN  2
     eigenvalues:
       0.968  0.983  0.992  0.992  0.994
     eigenvectors (columns):
      -0.037  0.999 -0.000 -0.000  0.000
      -0.000  0.000  0.000  1.000  0.000
      -0.000  0.000  1.000 -0.000  0.000
       0.999  0.037  0.000  0.000 -0.000
       0.000 -0.000 -0.000 -0.000  1.000
     occupation matrix ns (before diag.):
       0.983 -0.000 -0.000  0.001  0.000
      -0.000  0.992 -0.000  0.000  0.000
      -0.000 -0.000  0.992  0.000  0.000
       0.001  0.000  0.000  0.968 -0.000
       0.000  0.000  0.000 -0.000  0.994

     Number of occupied Hubbard levels =   18.1313

     negative rho (up, down):  8.621E-02 8.621E-02

     HUBBARD ENERGY =    0.2001  (Ry)

     total cpu time spent up to now is      178.2 secs

     total energy              =   -1671.17887223 Ry
     estimated scf accuracy    <       0.00034532 Ry

     total magnetization       =    -0.00 Bohr mag/cell
     absolute magnetization    =     1.89 Bohr mag/cell

     iteration # 18     ecut=    90.00 Ry     beta= 0.10
     Davidson diagonalization with overlap

---- Real-time Memory Report at c_bands before calling an iterative solver
           931 MiB given to the printing process from OS
             0 MiB allocation reported by mallinfo(arena+hblkhd)
         12704 MiB available memory on the node where the printing process lives
------------------
     ethr =  2.66E-07,  avg # of iterations =  1.2

     =================== HUBBARD OCCUPATIONS ===================
     ------------------------ ATOM    5 ------------------------
     Tr[ns(  5)] (up, down, total) =   4.92810  4.13504  9.06314
     Atomic magnetic moment for atom   5 =   0.79305
     SPIN  1
     eigenvalues:
       0.967  0.983  0.992  0.992  0.994
     eigenvectors (columns):
      -0.034  0.999 -0.000 -0.000  0.000
      -0.000  0.000  0.000  1.000  0.000
      -0.000  0.000  1.000 -0.000  0.000
       0.999  0.034  0.000  0.000 -0.000
       0.000 -0.000 -0.000 -0.000  1.000
     occupation matrix ns (before diag.):
[...]
     1.0000   1.0000   1.0000   1.0000   1.0000   1.0000   1.0004   1.0013
     1.0035   0.8547  -0.0000  -0.0000  -0.0000  -0.0000  -0.0000  -0.0000
    -0.0000  -0.0000  -0.0000  -0.0000  -0.0000  -0.0000

          k =-0.4952 0.0000-0.1618 ( 17736 PWs)   bands (ev):

  -103.7066-102.5039-102.1415 -61.7194 -61.4327 -60.1438 -60.0633 -60.0322
   -59.7044 -59.5441 -59.5167 -59.2967 -31.0357 -15.5304 -15.5114 -11.5331
   -11.2171 -11.0289  -7.2733  -7.2434  -7.0526  -6.7813  -6.7082  -6.4823
    -5.9564  -1.0921  -0.7914  -0.6674  -0.5333  -0.5150  -0.4869   0.4286
     1.1189   1.7950   1.8419   1.8519   2.2679   2.4866   2.5440   2.8408
     4.9764   5.6399   6.3523   6.3929   6.5168   6.5355   6.8876   6.9030
     6.9865   7.1386   7.1646   7.3619   7.3893   7.8608   7.9673   7.9712
     8.0380   8.3103   8.3205   8.4182   8.8297   8.9113   9.1278   9.1913
     9.3074   9.8457  11.7934  14.3128  14.9317  14.9632  15.8104  16.1731
    16.2016  16.5526  16.6623  16.6752  16.8170  17.0605

     occupation numbers 
     1.0000   1.0000   1.0000   1.0000   1.0000   1.0000   1.0000   1.0000
     1.0000   1.0000   1.0000   1.0000   1.0000   1.0000   1.0000   1.0000
     1.0000   1.0000   1.0000   1.0000   1.0000   1.0000   1.0000   1.0000
     1.0000   1.0000   1.0000   1.0000   1.0000   1.0000   1.0000   1.0000
     1.0000   1.0000   1.0000   1.0000   1.0000   1.0000   1.0000   1.0000
     1.0000   1.0000   1.0000   1.0000   1.0000   1.0000   1.0000   1.0000
     1.0000   1.0000   1.0000   1.0000   1.0000   1.0000   1.0000   1.0000
     1.0000   1.0000   1.0000   1.0000   1.0000   1.0000   1.0001   1.0004
     1.0027   0.7598  -0.0000  -0.0000  -0.0000  -0.0000  -0.0000  -0.0000
    -0.0000  -0.0000  -0.0000  -0.0000  -0.0000  -0.0000

          k =-0.4952-0.4791 0.0000 ( 17636 PWs)   bands (ev):

  -103.7066-102.5039-102.1415 -61.7194 -61.4328 -60.1438 -60.0634 -60.0322
   -59.7044 -59.5441 -59.5167 -59.2967 -31.0273 -15.4662 -15.4485 -11.5020
   -11.4319 -11.0701  -7.0358  -6.9588  -6.6738  -6.5247  -6.4823  -6.3262
    -6.2695  -1.4016  -1.3700  -1.3327  -1.1040  -1.0801  -0.7624   0.1682
     1.0385   1.7236   1.7426   1.8350   1.9689   2.2736   2.5332   2.6623
     3.6504   4.6198   5.1457   5.9732   6.3799   6.5618   6.6757   7.1164
     7.2480   7.4421   7.6284   7.7118   7.8348   8.2100   8.3204   8.4868
     8.7469   8.7608   9.1432   9.3305   9.6618   9.6638   9.8333   9.8730
    10.2099  11.6444  12.5967  13.4762  13.7022  15.3281  15.3345  15.8906
    15.9670  16.0651  16.4159  16.9294  17.3165  17.6429

     occupation numbers 
     1.0000   1.0000   1.0000   1.0000   1.0000   1.0000   1.0000   1.0000
     1.0000   1.0000   1.0000   1.0000   1.0000   1.0000   1.0000   1.0000
     1.0000   1.0000   1.0000   1.0000   1.0000   1.0000   1.0000   1.0000
     1.0000   1.0000   1.0000   1.0000   1.0000   1.0000   1.0000   1.0000
     1.0000   1.0000   1.0000   1.0000   1.0000   1.0000   1.0000   1.0000
     1.0000   1.0000   1.0000   1.0000   1.0000   1.0000   1.0000   1.0000
     1.0000   1.0000   1.0000   1.0000   1.0000   1.0000   1.0000   1.0000
     1.0000   1.0000   1.0002   1.0037   1.0252   1.0245   0.7913   0.6852
    -0.0264  -0.0000  -0.0000  -0.0000  -0.0000  -0.0000  -0.0000  -0.0000
    -0.0000  -0.0000  -0.0000  -0.0000  -0.0000  -0.0000

          k =-0.4952-0.4791-0.1618 ( 17656 PWs)   bands (ev):

  -103.7066-102.5039-102.1415 -61.7194 -61.4328 -60.1438 -60.0634 -60.0322
   -59.7044 -59.5441 -59.5167 -59.2967 -31.0273 -15.4665 -15.4482 -11.5020
   -11.4319 -11.0702  -7.0358  -6.9598  -6.6738  -6.5244  -6.4777  -6.3266
    -6.2732  -1.4019  -1.3677  -1.3351  -1.1031  -1.0575  -0.7898   0.1682
     1.0425   1.7236   1.7434   1.8351   1.9681   2.2715   2.5331   2.6625
     3.7578   4.3443   5.2033   6.2519   6.4872   6.5530   6.6999   6.9108
     7.2378   7.5346   7.5638   7.6574   7.7272   8.2172   8.2955   8.4983
     8.7469   8.7632   9.1434   9.3299   9.6456   9.6716   9.8292   9.8706
    10.2099  11.8419  12.6159  13.4099  13.5957  15.3728  15.6292  15.6336
    16.0888  16.0932  16.3256  16.6841  16.8546  17.5613

     occupation numbers 
     1.0000   1.0000   1.0000   1.0000   1.0000   1.0000   1.0000   1.0000
     1.0000   1.0000   1.0000   1.0000   1.0000   1.0000   1.0000   1.0000
     1.0000   1.0000   1.0000   1.0000   1.0000   1.0000   1.0000   1.0000
     1.0000   1.0000   1.0000   1.0000   1.0000   1.0000   1.0000   1.0000
     1.0000   1.0000   1.0000   1.0000   1.0000   1.0000   1.0000   1.0000
     1.0000   1.0000   1.0000   1.0000   1.0000   1.0000   1.0000   1.0000
     1.0000   1.0000   1.0000   1.0000   1.0000   1.0000   1.0000   1.0000
     1.0000   1.0000   1.0002   1.0037   1.0303   1.0211   0.8011   0.6920
    -0.0264  -0.0000  -0.0000  -0.0000  -0.0000  -0.0000  -0.0000  -0.0000
    -0.0000  -0.0000  -0.0000  -0.0000  -0.0000  -0.0000

     the Fermi energy is     9.9342 ev

!    total energy              =   -1671.19731082 Ry
     estimated scf accuracy    <          8.9E-11 Ry
     smearing contrib. (-TS)   =      -0.00133451 Ry
     internal energy E=F+TS    =   -1671.19597632 Ry

     The total energy is F=E-TS. E is the sum of the following terms:
     one-electron contribution =   -1264.44573094 Ry
     hartree contribution      =     702.98200472 Ry
     xc contribution           =    -250.55411735 Ry
     ewald contribution        =    -859.36258071 Ry
     Hubbard energy            =       0.18444797 Ry

     total magnetization       =     0.00 Bohr mag/cell
     absolute magnetization    =     2.02 Bohr mag/cell

     convergence has been achieved in  43 iterations

     negative rho (up, down):  8.658E-02 8.658E-02

     Forces acting on atoms (cartesian axes, Ry/au):

     atom    1 type  1   force =     0.00000000    0.00000000   -0.00000035
     atom    2 type  2   force =     0.00000000    0.00000000    0.00010239
     atom    3 type  2   force =     0.00000000    0.00000000   -0.00010235
     atom    4 type  3   force =     0.00000000    0.00000000   -0.00000050
     atom    5 type  4   force =     0.00000000    0.00000000   -0.00006047
     atom    6 type  5   force =     0.00000000    0.00000000    0.00006052
     atom    7 type  6   force =     0.00000000    0.00000000   -0.00009627
     atom    8 type  6   force =     0.00000000    0.00000000    0.00009607
     atom    9 type  6   force =     0.00000000    0.00000000   -0.00017784
     atom   10 type  6   force =     0.00000000    0.00000000    0.00017765
     atom   11 type  6   force =     0.00000000    0.00000000    0.00000036
     atom   12 type  6   force =     0.00000000    0.00000000    0.00018293
     atom   13 type  6   force =     0.00000000    0.00000000   -0.00018214
     The non-local contrib.  to forces
     atom    1 type  1   force =     0.00000000    0.00000000   -0.00000022
     atom    2 type  2   force =     0.00000000    0.00000000    0.03009152
     atom    3 type  2   force =     0.00000000    0.00000000   -0.03009131
     atom    4 type  3   force =     0.00000000    0.00000000   -0.00000091
     atom    5 type  4   force =     0.00000000    0.00000000   -0.02523541
     atom    6 type  5   force =     0.00000000    0.00000000    0.02522728
     atom    7 type  6   force =     0.00000000    0.00000000   -0.02895047
     atom    8 type  6   force =     0.00000000    0.00000000    0.02894924
     atom    9 type  6   force =     0.00000000    0.00000000    0.06165163
     atom   10 type  6   force =     0.00000000    0.00000000   -0.06165394
     atom   11 type  6   force =     0.00000000    0.00000000    0.00000075
     atom   12 type  6   force =     0.00000000    0.00000000   -0.35506821
     atom   13 type  6   force =     0.00000000    0.00000000    0.35506625
     The ionic contribution  to forces
     atom    1 type  1   force =     0.00000000    0.00000000   -0.00008768
     atom    2 type  2   force =     0.00000000    0.00000000   -9.26832218
     atom    3 type  2   force =     0.00000000    0.00000000    9.26842927
     atom    4 type  3   force =    -0.00000000   -0.00000000    0.00021595
     atom    5 type  4   force =    -0.00000000   -0.00000000  -24.20828781
     atom    6 type  5   force =    -0.00000000   -0.00000000   24.20798706
     atom    7 type  6   force =     0.00000000   -0.00000000   -4.67711054
     atom    8 type  6   force =     0.00000000   -0.00000000    4.67703302
     atom    9 type  6   force =    -0.00000000    0.00000000   -5.44475180
     atom   10 type  6   force =    -0.00000000    0.00000000    5.44466029
     atom   11 type  6   force =    -0.00000000    0.00000000    0.00006708
     atom   12 type  6   force =    -0.00000000   -0.00000000    1.21196502
     atom   13 type  6   force =    -0.00000000   -0.00000000   -1.21179768
     The local contribution  to forces
     atom    1 type  1   force =     0.00000000    0.00000000    0.00008730
     atom    2 type  2   force =     0.00000000    0.00000000    9.23917273
     atom    3 type  2   force =     0.00000000    0.00000000   -9.23927976
     atom    4 type  3   force =    -0.00000000    0.00000000   -0.00021483
     atom    5 type  4   force =    -0.00000000   -0.00000000   24.22582298
     atom    6 type  5   force =    -0.00000000   -0.00000000  -24.22551425
     atom    7 type  6   force =     0.00000000    0.00000000    4.70578437
     atom    8 type  6   force =     0.00000000    0.00000000   -4.70570619
     atom    9 type  6   force =     0.00000000    0.00000000    5.38287337
     atom   10 type  6   force =     0.00000000    0.00000000   -5.38277994
     atom   11 type  6   force =    -0.00000000    0.00000000   -0.00006735
     atom   12 type  6   force =     0.00000000   -0.00000000   -0.85782820
     atom   13 type  6   force =    -0.00000000   -0.00000000    0.85766379
     The core correction contribution to forces
     atom    1 type  1   force =    -0.00000000   -0.00000000    0.00000001
     atom    2 type  2   force =    -0.00000000   -0.00000000    0.00019727
     atom    3 type  2   force =    -0.00000000   -0.00000000   -0.00019727
     atom    4 type  3   force =    -0.00000000    0.00000000   -0.00000000
     atom    5 type  4   force =     0.00000000   -0.00000000    0.00012823
     atom    6 type  5   force =    -0.00000000    0.00000000   -0.00012821
     atom    7 type  6   force =     0.00000000   -0.00000000    0.00060697
     atom    8 type  6   force =     0.00000000    0.00000000   -0.00060696
     atom    9 type  6   force =    -0.00000000    0.00000000    0.00006813
     atom   10 type  6   force =    -0.00000000    0.00000000   -0.00006811
     atom   11 type  6   force =    -0.00000000    0.00000000   -0.00000001
     atom   12 type  6   force =     0.00000000   -0.00000000    0.00218277
     atom   13 type  6   force =    -0.00000000   -0.00000000   -0.00218276
     The Hubbard contrib.    to forces
     atom    1 type  1   force =     0.00000000    0.00000000    0.00000000
     atom    2 type  2   force =     0.00000000    0.00000000   -0.00104347
     atom    3 type  2   force =     0.00000000    0.00000000    0.00104348
     atom    4 type  3   force =     0.00000000    0.00000000    0.00000000
     atom    5 type  4   force =     0.00000000    0.00000000    0.00749984
     atom    6 type  5   force =     0.00000000    0.00000000   -0.00750046
     atom    7 type  6   force =     0.00000000    0.00000000   -0.00042670
     atom    8 type  6   force =     0.00000000    0.00000000    0.00042671
     atom    9 type  6   force =     0.00000000    0.00000000   -0.00001842
     atom   10 type  6   force =     0.00000000    0.00000000    0.00001842
     atom   11 type  6   force =     0.00000000    0.00000000    0.00000000
     atom   12 type  6   force =     0.00000000    0.00000000   -0.00107117
     atom   13 type  6   force =     0.00000000    0.00000000    0.00107120
     The SCF correction term to forces
     atom    1 type  1   force =    -0.00000000    0.00000000    0.00000026
     atom    2 type  2   force =     0.00000000   -0.00000000    0.00000654
     atom    3 type  2   force =    -0.00000000    0.00000000   -0.00000675
     atom    4 type  3   force =    -0.00000000   -0.00000000   -0.00000071
     atom    5 type  4   force =     0.00000000   -0.00000000    0.00001171
     atom    6 type  5   force =    -0.00000000    0.00000000   -0.00001088
     atom    7 type  6   force =    -0.00000000    0.00000000    0.00000012
     atom    8 type  6   force =    -0.00000000   -0.00000000    0.00000026
     atom    9 type  6   force =     0.00000000    0.00000000   -0.00000074
     atom   10 type  6   force =    -0.00000000   -0.00000000    0.00000094
     atom   11 type  6   force =     0.00000000   -0.00000000   -0.00000010
     atom   12 type  6   force =    -0.00000000   -0.00000000    0.00000274
     atom   13 type  6   force =    -0.00000000    0.00000000   -0.00000293

     Total force =     0.000420     Total SCF correction =     0.000019


     Computing stress (Cartesian axis) and pressure


     negative rho (up, down):  8.658E-02 8.658E-02
          total   stress  (Ry/bohr**3)                   (kbar)     P=        0.20
   0.00000088   0.00000000   0.00000000            0.13        0.00        0.00
   0.00000000   0.00000266   0.00000000            0.00        0.39        0.00
   0.00000000   0.00000000   0.00000053            0.00        0.00        0.08

     kinetic stress (kbar)  21917.64      0.00      0.00
                                0.00  21798.13      0.00
                                0.00      0.00  22131.41

     local   stress (kbar) -17315.52      0.00      0.00
                                0.00 -32361.68     -0.00
                                0.00     -0.00  -5498.77

     nonloc. stress (kbar)  11827.39      0.00      0.00
                                0.00  11893.25      0.00
                                0.00      0.00  12358.83

     hartree stress (kbar)  27703.37     -0.00     -0.00
                               -0.00  34567.85      0.00
                               -0.00      0.00  22134.15

     exc-cor stress (kbar)   -466.54     -0.00      0.00
                               -0.00   -463.15     -0.00
                                0.00     -0.00   -466.01

     corecor stress (kbar)  -7488.73      0.00     -0.00
                                0.00  -7489.05     -0.00
                               -0.00     -0.00  -7490.44

     ewald   stress (kbar) -34870.06     -0.00      0.00
                               -0.00 -26612.07      0.00
                                0.00      0.00 -41699.49

     hubbard stress (kbar)  -1307.42      0.00      0.00
                                0.00  -1332.89      0.00
                                0.00      0.00  -1469.60

     DFT-D   stress (kbar)      0.00      0.00      0.00
                                0.00      0.00      0.00
                                0.00      0.00      0.00

     XDM     stress (kbar)      0.00      0.00      0.00
                                0.00      0.00      0.00
                                0.00      0.00      0.00

     dft-nl  stress (kbar)      0.00      0.00      0.00
                                0.00      0.00      0.00
                                0.00      0.00      0.00

     TS-vdW  stress (kbar)      0.00      0.00      0.00
                                0.00      0.00      0.00
                                0.00      0.00      0.00

     MDB     stress (kbar)      0.00      0.00      0.00
                                0.00      0.00      0.00
                                0.00      0.00      0.00

     3D-RISM stress (kbar)      0.00      0.00      0.00
                                0.00      0.00      0.00
                                0.00      0.00      0.00


     Writing all to output data dir ./YBCO.vc-relax/YBCO.vc-relax.save/
 
     init_run     :     12.26s CPU     12.94s WALL (       2 calls)
     electrons    :   6603.86s CPU   7042.80s WALL (      14 calls)
     update_pot   :     13.85s CPU     14.01s WALL (      12 calls)
     forces       :    360.90s CPU    369.64s WALL (      14 calls)
     stress       :    872.17s CPU    900.63s WALL (      14 calls)

     Called by init_run:
     wfcinit      :      6.81s CPU      6.90s WALL (       2 calls)
     wfcinit:atom :      0.10s CPU      0.10s WALL (      32 calls)
     wfcinit:wfcr :      4.48s CPU      4.53s WALL (      32 calls)
     potinit      :      0.30s CPU      0.34s WALL (       2 calls)
     hinit0       :      2.82s CPU      2.86s WALL (       2 calls)

     Called by electrons:
     c_bands      :   3508.63s CPU   3556.03s WALL (     674 calls)
     sum_band     :   2187.19s CPU   2409.37s WALL (     674 calls)
     v_of_rho     :     94.76s CPU     95.88s WALL (     684 calls)
     v_h          :      4.04s CPU      4.15s WALL (     684 calls)
     v_xc         :     94.21s CPU     95.32s WALL (     712 calls)
     newd         :    801.40s CPU    972.64s WALL (     684 calls)
     mix_rho      :     19.88s CPU     20.30s WALL (     674 calls)

     Called by c_bands:
     init_us_2    :     76.86s CPU     77.50s WALL (   22720 calls)
     init_us_2:cp :     76.76s CPU     77.44s WALL (   22720 calls)
     cegterg      :   3109.48s CPU   3154.92s WALL (   10784 calls)

     Called by sum_band:
     sum_band:wei :      1.21s CPU      1.21s WALL (     674 calls)
     sum_band:loo :    550.04s CPU    560.29s WALL (     674 calls)
     sum_band:buf :     12.09s CPU     12.14s WALL (   10784 calls)
     sum_band:ini :     36.17s CPU     36.28s WALL (   10784 calls)
     sum_band:cal :    125.37s CPU    127.49s WALL (   10784 calls)
     sum_band:bec :      0.91s CPU      0.92s WALL (   10784 calls)
     addusdens    :   1598.81s CPU   1805.01s WALL (     674 calls)
                                        0.00s GPU  (     674 calls)
     addusd:skk   :      2.54s CPU      2.68s WALL (    4044 calls)
                                        0.00s GPU  (    4044 calls)

     Called by *egterg:
     cdiaghg      :    116.11s CPU    116.68s WALL (   31852 calls)
     cegterg:over :    226.60s CPU    230.20s WALL (   21324 calls)
     cegterg:upda :    121.18s CPU    121.33s WALL (   21324 calls)
     cegterg:last :    253.14s CPU    253.39s WALL (   17419 calls)
     h_psi        :   1953.90s CPU   1989.68s WALL (   32140 calls)
     s_psi        :    296.17s CPU    297.52s WALL (   33260 calls)
     g_psi        :      8.67s CPU      8.68s WALL (   21324 calls)

     Called by h_psi:
     h_psi:calbec :    280.42s CPU    285.04s WALL (   32140 calls)
     vloc_psi     :   1300.61s CPU   1329.49s WALL (   32140 calls)
     add_vuspsi   :    276.68s CPU    277.12s WALL (   32140 calls)
     vhpsi        :     74.02s CPU     75.73s WALL (   32140 calls)

     General routines
     calbec       :    773.22s CPU    787.98s WALL (  370104 calls)
     fft          :     42.34s CPU     43.54s WALL (   17652 calls)
     ffts         :      1.57s CPU      1.60s WALL (    2716 calls)
     fftw         :   1252.06s CPU   1280.20s WALL ( 4448640 calls)
     interpolate  :      5.02s CPU      5.12s WALL (    1368 calls)
     davcio       :      0.00s CPU      0.00s WALL (      32 calls)
 
     Parallel routines

     Hubbard U routines
     new_ns       :     20.18s CPU     20.48s WALL (     674 calls)
     vhpsi        :     74.02s CPU     75.73s WALL (   32140 calls)
     force_hub    :    317.44s CPU    322.73s WALL (      14 calls)
                                        0.00s GPU  (      14 calls)
     stres_hub    :    503.75s CPU    509.82s WALL (      14 calls)
 
     PWSCF        :      2h11m CPU      2h19m WALL

 
   This run was terminated on:   3: 5:43  14Dec2023            

=------------------------------------------------------------------------------=
   JOB DONE.
=------------------------------------------------------------------------------=
