
     Program PWSCF v.7.2 starts on 23Dec2023 at 22:55: 6 

     This program is part of the open-source Quantum ESPRESSO suite
     for quantum simulation of materials; please cite
         "P. Giannozzi et al., J. Phys.:Condens. Matter 21 395502 (2009);
         "P. Giannozzi et al., J. Phys.:Condens. Matter 29 465901 (2017);
         "P. Giannozzi et al., J. Chem. Phys. 152 154105 (2020);
          URL http://www.quantum-espresso.org", 
     in publications or presentations arising from this work. More details at
     http://www.quantum-espresso.org/quote

     Parallel version (MPI), running on     4 processors

     MPI processes distributed on     1 nodes
     11913 MiB available memory on the printing compute node when the environment starts
 
     Waiting for input...
     Reading input from standard input
Warning: card &CELL ignored
Warning: card / ignored

     Current dimensions of program PWSCF are:
     Max number of different atomic species (ntypx) = 10
     Max number of k-points (npk) =  40000
     Max angular momentum in pseudopotentials (lmaxx) =  4
     file Ba.pbe-spn-kjpaw_psl.1.0.0.UPF: wavefunction(s)  5S 6S renormalized
     file Cu.paw.z_11.ld1.psl.v1.0.0-low.upf: wavefunction(s)  4S 3D renormalized
     file Cu.paw.z_11.ld1.psl.v1.0.0-low.upf: wavefunction(s)  4S 3D renormalized
     file Cu.paw.z_11.ld1.psl.v1.0.0-low.upf: wavefunction(s)  4S 3D renormalized
     file O.pbe-n-kjpaw_psl.0.1.UPF: wavefunction(s)  2P renormalized
 
     R & G space division:  proc/nbgrp/npool/nimage =       4
     Subspace diagonalization in iterative solution of the eigenvalue problem:
     a serial algorithm will be used

 
     Parallelization info
     --------------------
     sticks:   dense  smooth     PW     G-vecs:    dense   smooth      PW
     Min         776     389    109                98528    34843    5265
     Max         777     390    110                98535    34845    5272
     Sum        3105    1557    437               394127   139375   21071
 
     Using Slab Decomposition
 


     bravais-lattice index     =            8
     lattice parameter (alat)  =       7.2958  a.u.
     unit-cell volume          =    1208.1815 (a.u.)^3
     number of atoms/cell      =           13
     number of atomic types    =            6
     number of electrons       =       106.00
     number of Kohn-Sham states=           64
     kinetic-energy cutoff     =      90.0000  Ry
     charge density cutoff     =     720.0000  Ry
     scf convergence threshold =      1.0E-09
     mixing beta               =       0.3000
     number of iterations used =            8  plain     mixing
     Exchange-correlation= SLA  PW   PBX  PBC
                           (   1   4   3   4   0   0   0)
     Hubbard projectors: ortho-atomic
     Hubbard parameters of DFT+U (Dudarev formulation) in eV:
     U(Cu1-3d) = 10.0000
     U(Cu2-3d) = 10.0000

     Internal variables: lda_plus_u = T, lda_plus_u_kind = 0

     celldm(1)=   7.295777  celldm(2)=   1.020309  celldm(3)=   3.049198
     celldm(4)=   0.000000  celldm(5)=   0.000000  celldm(6)=   0.000000

     crystal axes: (cart. coord. in units of alat)
               a(1) = (   1.000000   0.000000   0.000000 )  
               a(2) = (   0.000000   1.020309   0.000000 )  
               a(3) = (   0.000000   0.000000   3.049198 )  

     reciprocal axes: (cart. coord. in units 2 pi/alat)
               b(1) = (  1.000000  0.000000  0.000000 )  
               b(2) = (  0.000000  0.980095  0.000000 )  
               b(3) = (  0.000000  0.000000  0.327955 )  


     PseudoPot. # 1 for Y  read from file:
     ~/q-e/pseudo/Y_pbe_v1.uspp.F.UPF
     MD5 check sum: Not computed, couldn't open file
     Pseudo is Ultrasoft + core correction, Zval = 11.0
     Generated by new atomic code, or converted to UPF format
     Using radial grid of  885 points,  6 beta functions with: 
                l(1) =   0
                l(2) =   0
                l(3) =   1
                l(4) =   1
                l(5) =   2
                l(6) =   2
     Q(r) pseudized with  6 coefficients,  rinner =    1.200   1.200   1.200
                                                       1.200   1.200

     PseudoPot. # 2 for Ba read from file:
     ~/q-e/pseudo/Ba.pbe-spn-kjpaw_psl.1.0.0.UPF
     MD5 check sum: Not computed, couldn't open file
     Pseudo is Projector augmented-wave + core cor, Zval = 10.0
     Generated using "atomic" code by A. Dal Corso  v.5.1
     Shape of augmentation charge: PSQ
     Using radial grid of 1251 points,  7 beta functions with: 
                l(1) =   0
                l(2) =   0
                l(3) =   0
                l(4) =   1
                l(5) =   1
                l(6) =   2
                l(7) =   2
     Q(r) pseudized with 0 coefficients 


     PseudoPot. # 3 for Cu read from file:
     ~/q-e/pseudo/Cu.paw.z_11.ld1.psl.v1.0.0-low.upf
     MD5 check sum: Not computed, couldn't open file
     Pseudo is Projector augmented-wave + core cor, Zval = 11.0
     Generated using &quot;atomic&quot; code by A. Dal Corso  v.6.3MaX
     Shape of augmentation charge: PSQ
     Using radial grid of 1199 points,  6 beta functions with: 
                l(1) =   0
                l(2) =   0
                l(3) =   1
                l(4) =   1
                l(5) =   2
                l(6) =   2
     Q(r) pseudized with 0 coefficients 


     PseudoPot. # 4 for Cu read from file:
     ~/q-e/pseudo/Cu.paw.z_11.ld1.psl.v1.0.0-low.upf
     MD5 check sum: Not computed, couldn't open file
     Pseudo is Projector augmented-wave + core cor, Zval = 11.0
     Generated using &quot;atomic&quot; code by A. Dal Corso  v.6.3MaX
     Shape of augmentation charge: PSQ
     Using radial grid of 1199 points,  6 beta functions with: 
                l(1) =   0
                l(2) =   0
                l(3) =   1
                l(4) =   1
                l(5) =   2
                l(6) =   2
     Q(r) pseudized with 0 coefficients 


     PseudoPot. # 5 for Cu read from file:
     ~/q-e/pseudo/Cu.paw.z_11.ld1.psl.v1.0.0-low.upf
     MD5 check sum: Not computed, couldn't open file
     Pseudo is Projector augmented-wave + core cor, Zval = 11.0
     Generated using &quot;atomic&quot; code by A. Dal Corso  v.6.3MaX
     Shape of augmentation charge: PSQ
     Using radial grid of 1199 points,  6 beta functions with: 
                l(1) =   0
                l(2) =   0
                l(3) =   1
                l(4) =   1
                l(5) =   2
                l(6) =   2
     Q(r) pseudized with 0 coefficients 


     PseudoPot. # 6 for O  read from file:
     ~/q-e/pseudo/O.pbe-n-kjpaw_psl.0.1.UPF
     MD5 check sum: Not computed, couldn't open file
     Pseudo is Projector augmented-wave + core cor, Zval =  6.0
     Generated using "atomic" code by A. Dal Corso  v.5.0.99 svn rev. 10869
     Shape of augmentation charge: BESSEL
     Using radial grid of 1095 points,  4 beta functions with: 
                l(1) =   0
                l(2) =   0
                l(3) =   1
                l(4) =   1
     Q(r) pseudized with 0 coefficients 


     atomic species   valence    mass     pseudopotential
     Y                11.00    88.90584     Y ( 1.00)
     Ba               10.00   137.32700     Ba( 1.00)
     Cu               11.00    63.54600     Cu( 1.00)
     Cu1              11.00    63.54600     Cu( 1.00)
     Cu2              11.00    63.54600     Cu( 1.00)
     O                 6.00    15.99900     O ( 1.00)

     Starting magnetic structure 
     atomic species   magnetization
     Y               0.000
     Ba              0.000
     Cu              0.000
     Cu1             0.500
     Cu2            -0.500
     O               0.000

      4 Sym. Ops. (no inversion) found



   Cartesian axes

     site n.     atom                  positions (alat units)
         1        Y      tau(   1) = (   0.5000000   0.5101547   1.5245990  )
         2        Ba     tau(   2) = (   0.5000000   0.5101547   0.5582950  )
         3        Ba     tau(   3) = (   0.5000000   0.5101547   2.4909036  )
         4        Cu     tau(   4) = (   0.0000000   0.0000000   0.0000003  )
         5        Cu1    tau(   5) = (   0.0000000   0.0000000   1.0801058  )
         6        Cu2    tau(   6) = (   0.0000000   0.0000000   1.9690906  )
         7        O      tau(   7) = (   0.5000000   0.0000000   1.1546042  )
         8        O      tau(   8) = (   0.5000000   0.0000000   1.8945944  )
         9        O      tau(   9) = (   0.0000000   0.5101547   1.1511962  )
        10        O      tau(  10) = (   0.0000000   0.5101547   1.8980023  )
        11        O      tau(  11) = (   0.0000000   0.5101547   0.0000002  )
        12        O      tau(  12) = (   0.0000000   0.0000000   0.4851820  )
        13        O      tau(  13) = (   0.0000000   0.0000000   2.5640165  )

     number of k points=    27  Methfessel-Paxton smearing, width (Ry)=  0.0300
                       cart. coord. in units 2pi/alat
        k(    1) = (   0.0000000   0.0000000   0.0000000), wk =   0.0156250
        k(    2) = (   0.0000000   0.0000000   0.0819888), wk =   0.0312500
        k(    3) = (   0.0000000   0.0000000  -0.1639775), wk =   0.0156250
        k(    4) = (   0.0000000   0.2450237   0.0000000), wk =   0.0312500
        k(    5) = (   0.0000000   0.2450237   0.0819888), wk =   0.0625000
        k(    6) = (   0.0000000   0.2450237  -0.1639775), wk =   0.0312500
        k(    7) = (   0.0000000  -0.4900475   0.0000000), wk =   0.0156250
        k(    8) = (   0.0000000  -0.4900475   0.0819888), wk =   0.0312500
        k(    9) = (   0.0000000  -0.4900475  -0.1639775), wk =   0.0156250
        k(   10) = (   0.2500000   0.0000000   0.0000000), wk =   0.0312500
        k(   11) = (   0.2500000   0.0000000   0.0819888), wk =   0.0625000
        k(   12) = (   0.2500000   0.0000000  -0.1639775), wk =   0.0312500
        k(   13) = (   0.2500000   0.2450237   0.0000000), wk =   0.0625000
        k(   14) = (   0.2500000   0.2450237   0.0819888), wk =   0.1250000
        k(   15) = (   0.2500000   0.2450237  -0.1639775), wk =   0.0625000
        k(   16) = (   0.2500000  -0.4900475   0.0000000), wk =   0.0312500
        k(   17) = (   0.2500000  -0.4900475   0.0819888), wk =   0.0625000
        k(   18) = (   0.2500000  -0.4900475  -0.1639775), wk =   0.0312500
        k(   19) = (  -0.5000000   0.0000000   0.0000000), wk =   0.0156250
        k(   20) = (  -0.5000000   0.0000000   0.0819888), wk =   0.0312500
        k(   21) = (  -0.5000000   0.0000000  -0.1639775), wk =   0.0156250
        k(   22) = (  -0.5000000   0.2450237   0.0000000), wk =   0.0312500
        k(   23) = (  -0.5000000   0.2450237   0.0819888), wk =   0.0625000
        k(   24) = (  -0.5000000   0.2450237  -0.1639775), wk =   0.0312500
        k(   25) = (  -0.5000000  -0.4900475   0.0000000), wk =   0.0156250
        k(   26) = (  -0.5000000  -0.4900475   0.0819888), wk =   0.0312500
        k(   27) = (  -0.5000000  -0.4900475  -0.1639775), wk =   0.0156250

     Dense  grid:   394127 G-vectors     FFT dimensions: (  64,  64, 192)

     Smooth grid:   139375 G-vectors     FFT dimensions: (  45,  45, 135)

     Estimated max dynamical RAM per process >     743.66 MB

     Estimated total dynamical RAM >       2.90 GB
     Generating pointlists ...
     new r_m :   0.2574 (alat units)  1.8781 (a.u.) for type    1
     new r_m :   0.2962 (alat units)  2.1610 (a.u.) for type    2
     new r_m :   0.2001 (alat units)  1.4602 (a.u.) for type    3
     new r_m :   0.2085 (alat units)  1.5214 (a.u.) for type    4
     new r_m :   0.2085 (alat units)  1.5214 (a.u.) for type    5
     new r_m :   0.2001 (alat units)  1.4602 (a.u.) for type    6

     Initial potential from superposition of free atoms

     starting charge     105.9608, renormalised to     106.0000

     negative rho (up, down):  2.178E-02 2.178E-02

     STARTING HUBBARD OCCUPATIONS:

     =================== HUBBARD OCCUPATIONS ===================
     ------------------------ ATOM    5 ------------------------
     Tr[ns(  5)] (up, down, total) =   5.00000  4.50000  9.50000
     Atomic magnetic moment for atom   5 =   0.50000
     SPIN  1
     eigenvalues:
       1.000  1.000  1.000  1.000  1.000
     eigenvectors (columns):
       1.000  0.000  0.000  0.000  0.000
       0.000  1.000  0.000  0.000  0.000
       0.000  0.000  1.000  0.000  0.000
       0.000  0.000  0.000  1.000  0.000
       0.000  0.000  0.000  0.000  1.000
     occupation matrix ns (before diag.):
       1.000  0.000  0.000  0.000  0.000
       0.000  1.000  0.000  0.000  0.000
       0.000  0.000  1.000  0.000  0.000
       0.000  0.000  0.000  1.000  0.000
       0.000  0.000  0.000  0.000  1.000
     SPIN  2
     eigenvalues:
       0.900  0.900  0.900  0.900  0.900
     eigenvectors (columns):
       1.000  0.000  0.000  0.000  0.000
       0.000  1.000  0.000  0.000  0.000
       0.000  0.000  1.000  0.000  0.000
       0.000  0.000  0.000  1.000  0.000
       0.000  0.000  0.000  0.000  1.000
     occupation matrix ns (before diag.):
       0.900  0.000  0.000  0.000  0.000
       0.000  0.900  0.000  0.000  0.000
       0.000  0.000  0.900  0.000  0.000
       0.000  0.000  0.000  0.900  0.000
       0.000  0.000  0.000  0.000  0.900
     ------------------------ ATOM    6 ------------------------
     Tr[ns(  6)] (up, down, total) =   4.50000  5.00000  9.50000
     Atomic magnetic moment for atom   6 =  -0.50000
     SPIN  1
     eigenvalues:
       0.900  0.900  0.900  0.900  0.900
     eigenvectors (columns):
       1.000  0.000  0.000  0.000  0.000
       0.000  1.000  0.000  0.000  0.000
       0.000  0.000  1.000  0.000  0.000
       0.000  0.000  0.000  1.000  0.000
       0.000  0.000  0.000  0.000  1.000
     occupation matrix ns (before diag.):
       0.900  0.000  0.000  0.000  0.000
       0.000  0.900  0.000  0.000  0.000
       0.000  0.000  0.900  0.000  0.000
       0.000  0.000  0.000  0.900  0.000
       0.000  0.000  0.000  0.000  0.900
     SPIN  2
     eigenvalues:
       1.000  1.000  1.000  1.000  1.000
     eigenvectors (columns):
       1.000  0.000  0.000  0.000  0.000
       0.000  1.000  0.000  0.000  0.000
       0.000  0.000  1.000  0.000  0.000
       0.000  0.000  0.000  1.000  0.000
       0.000  0.000  0.000  0.000  1.000
     occupation matrix ns (before diag.):
       1.000  0.000  0.000  0.000  0.000
       0.000  1.000  0.000  0.000  0.000
       0.000  0.000  1.000  0.000  0.000
       0.000  0.000  0.000  1.000  0.000
       0.000  0.000  0.000  0.000  1.000

     Number of occupied Hubbard levels =   19.0000

     Atomic wfc used for Hubbard projectors are orthogonalized

     Starting wfcs are   78 randomized atomic wfcs
     Checking if some PAW data can be deallocated... 

     total cpu time spent up to now is        9.3 secs

     Self-consistent Calculation

     iteration #  1     ecut=    90.00 Ry     beta= 0.30
     Davidson diagonalization with overlap
     ethr =  1.00E-02,  avg # of iterations =  7.6

     =================== HUBBARD OCCUPATIONS ===================
     ------------------------ ATOM    5 ------------------------
     Tr[ns(  5)] (up, down, total) =   4.97992  4.56023  9.54015
     Atomic magnetic moment for atom   5 =   0.41970
     SPIN  1
     eigenvalues:
       0.990  0.996  0.998  0.998  0.998
     eigenvectors (columns):
       0.988 -0.152  0.000  0.000  0.000
       0.000  0.000 -0.000 -1.000  0.000
       0.000  0.000 -1.000  0.000  0.000
      -0.152 -0.988 -0.000 -0.000 -0.000
      -0.000 -0.000  0.000  0.000  1.000
     occupation matrix ns (before diag.):
       0.990 -0.000 -0.000  0.001  0.000
      -0.000  0.998 -0.000  0.000  0.000
      -0.000 -0.000  0.998  0.000  0.000
       0.001  0.000  0.000  0.996 -0.000
       0.000  0.000  0.000 -0.000  0.998
     SPIN  2
     eigenvalues:
       0.655  0.954  0.979  0.981  0.991
     eigenvectors (columns):
      -0.023  1.000 -0.000 -0.000  0.000
      -0.000  0.000  1.000 -0.000  0.000
      -0.000  0.000  0.000  1.000  0.000
       1.000  0.023  0.000  0.000 -0.000
       0.000 -0.000 -0.000 -0.000  1.000
     occupation matrix ns (before diag.):
       0.953 -0.000 -0.000  0.007  0.000
      -0.000  0.979 -0.000  0.000  0.000
      -0.000 -0.000  0.981  0.000  0.000
       0.007  0.000  0.000  0.655 -0.000
       0.000  0.000  0.000 -0.000  0.991
     ------------------------ ATOM    6 ------------------------
     Tr[ns(  6)] (up, down, total) =   4.55929  4.98001  9.53930
     Atomic magnetic moment for atom   6 =  -0.42072
     SPIN  1
     eigenvalues:
       0.654  0.954  0.979  0.982  0.991
     eigenvectors (columns):
      -0.016  1.000 -0.000 -0.000  0.000
      -0.000  0.000  1.000 -0.000  0.000
      -0.000  0.000  0.000  1.000  0.000
       1.000  0.016  0.000  0.000 -0.000
       0.000 -0.000 -0.000 -0.000  1.000
     occupation matrix ns (before diag.):
       0.953 -0.000 -0.000  0.005  0.000
      -0.000  0.979 -0.000  0.000  0.000
      -0.000 -0.000  0.982  0.000  0.000
       0.005  0.000  0.000  0.654 -0.000
       0.000  0.000  0.000 -0.000  0.991
     SPIN  2
     eigenvalues:
       0.990  0.996  0.998  0.998  0.998
     eigenvectors (columns):
       0.989 -0.151  0.000 -0.000  0.000
       0.000  0.000 -0.000 -1.000  0.000
       0.000  0.000 -1.000  0.000  0.000
      -0.151 -0.989 -0.000 -0.000 -0.000
      -0.000 -0.000  0.000  0.000  1.000
     occupation matrix ns (before diag.):
       0.990 -0.000 -0.000  0.001  0.000
      -0.000  0.998 -0.000  0.000  0.000
      -0.000 -0.000  0.998  0.000  0.000
       0.001  0.000  0.000  0.996 -0.000
       0.000  0.000  0.000 -0.000  0.998

     Number of occupied Hubbard levels =   19.0794

     negative rho (up, down):  1.025E-01 4.827E-02

     total cpu time spent up to now is       30.6 secs

     total energy              =   -1887.69261512 Ry
     estimated scf accuracy    <      10.88694385 Ry

     total magnetization       =    -0.04 Bohr mag/cell
     absolute magnetization    =     4.57 Bohr mag/cell

     iteration #  2     ecut=    90.00 Ry     beta= 0.30
     Davidson diagonalization with overlap
     ethr =  1.00E-02,  avg # of iterations =  2.9

     negative rho (up, down):  1.509E-01 6.327E-02

     total cpu time spent up to now is       51.6 secs

     total energy              =   -1888.90281281 Ry
     estimated scf accuracy    <      25.20069056 Ry

     total magnetization       =     0.00 Bohr mag/cell
     absolute magnetization    =     5.24 Bohr mag/cell

     iteration #  3     ecut=    90.00 Ry     beta= 0.30
     Davidson diagonalization with overlap
     ethr =  1.00E-02,  avg # of iterations =  2.1

     negative rho (up, down):  1.955E-01 7.945E-02

     total cpu time spent up to now is       70.3 secs

     total energy              =   -1890.53974128 Ry
     estimated scf accuracy    <       6.43961604 Ry

     total magnetization       =     0.01 Bohr mag/cell
     absolute magnetization    =     3.39 Bohr mag/cell

     iteration #  4     ecut=    90.00 Ry     beta= 0.30
     Davidson diagonalization with overlap
     ethr =  6.08E-03,  avg # of iterations =  1.0

     negative rho (up, down):  2.733E-01 1.013E-01

     total cpu time spent up to now is       87.4 secs

     total energy              =   -1890.96667998 Ry
     estimated scf accuracy    <       1.62904211 Ry

     total magnetization       =     0.01 Bohr mag/cell
     absolute magnetization    =     4.17 Bohr mag/cell

     iteration #  5     ecut=    90.00 Ry     beta= 0.30
     Davidson diagonalization with overlap
     ethr =  1.54E-03,  avg # of iterations =  2.0

     negative rho (up, down):  3.376E-01 1.142E-01

     total cpu time spent up to now is      105.9 secs

     total energy              =   -1891.13833416 Ry
     estimated scf accuracy    <       0.87911313 Ry

     total magnetization       =     0.00 Bohr mag/cell
     absolute magnetization    =     3.62 Bohr mag/cell

     iteration #  6     ecut=    90.00 Ry     beta= 0.30
     Davidson diagonalization with overlap
     ethr =  8.29E-04,  avg # of iterations =  1.5

     negative rho (up, down):  2.881E-01 8.824E-02

     total cpu time spent up to now is      123.7 secs

     total energy              =   -1891.21985602 Ry
     estimated scf accuracy    <       0.13451771 Ry

     total magnetization       =     0.03 Bohr mag/cell
     absolute magnetization    =     2.88 Bohr mag/cell

     iteration #  7     ecut=    90.00 Ry     beta= 0.30
     Davidson diagonalization with overlap
     c_bands:  3 eigenvalues not converged
     ethr =  1.27E-04,  avg # of iterations =  8.0

     negative rho (up, down):  2.390E-01 6.743E-02

     total cpu time spent up to now is      145.8 secs

     total energy              =   -1891.23026744 Ry
     estimated scf accuracy    <       0.09726004 Ry

     total magnetization       =    -0.08 Bohr mag/cell
     absolute magnetization    =     2.82 Bohr mag/cell

     iteration #  8     ecut=    90.00 Ry     beta= 0.30
     Davidson diagonalization with overlap
     ethr =  9.18E-05,  avg # of iterations =  5.7

     negative rho (up, down):  1.251E-01 2.882E-02

     total cpu time spent up to now is      166.3 secs

     total energy              =   -1891.25305840 Ry
     estimated scf accuracy    <       0.19163000 Ry

     total magnetization       =     0.22 Bohr mag/cell
     absolute magnetization    =     2.58 Bohr mag/cell

     iteration #  9     ecut=    90.00 Ry     beta= 0.30
     Davidson diagonalization with overlap
     ethr =  9.18E-05,  avg # of iterations =  1.8

     negative rho (up, down):  8.335E-02 2.284E-02

     total cpu time spent up to now is      184.6 secs

     total energy              =   -1891.25729877 Ry
     estimated scf accuracy    <       0.13978187 Ry

     total magnetization       =     0.05 Bohr mag/cell
     absolute magnetization    =     2.26 Bohr mag/cell

     iteration # 10     ecut=    90.00 Ry     beta= 0.30
     Davidson diagonalization with overlap
     ethr =  9.18E-05,  avg # of iterations =  1.0

     negative rho (up, down):  5.796E-02 2.245E-02

     total cpu time spent up to now is      201.7 secs

     total energy              =   -1891.25796415 Ry
     estimated scf accuracy    <       0.04662091 Ry

     total magnetization       =     0.01 Bohr mag/cell
     absolute magnetization    =     2.23 Bohr mag/cell

     iteration # 11     ecut=    90.00 Ry     beta= 0.30
     Davidson diagonalization with overlap
     ethr =  4.40E-05,  avg # of iterations =  1.4

     negative rho (up, down):  4.487E-02 2.245E-02

     total cpu time spent up to now is      219.5 secs

     total energy              =   -1891.25835757 Ry
     estimated scf accuracy    <       0.01568086 Ry

     total magnetization       =     0.01 Bohr mag/cell
     absolute magnetization    =     2.23 Bohr mag/cell

     iteration # 12     ecut=    90.00 Ry     beta= 0.30
     Davidson diagonalization with overlap
     ethr =  1.48E-05,  avg # of iterations =  6.0

     negative rho (up, down):  3.934E-02 2.245E-02

     total cpu time spent up to now is      240.1 secs

     total energy              =   -1891.25889534 Ry
     estimated scf accuracy    <       0.00844328 Ry

     total magnetization       =    -0.02 Bohr mag/cell
     absolute magnetization    =     2.11 Bohr mag/cell

     iteration # 13     ecut=    90.00 Ry     beta= 0.30
     Davidson diagonalization with overlap
     c_bands:  1 eigenvalues not converged
     ethr =  7.97E-06,  avg # of iterations =  4.0

     negative rho (up, down):  3.734E-02 2.244E-02

     total cpu time spent up to now is      259.4 secs

     total energy              =   -1891.25891627 Ry
     estimated scf accuracy    <       0.00747047 Ry

     total magnetization       =    -0.01 Bohr mag/cell
     absolute magnetization    =     2.12 Bohr mag/cell

     iteration # 14     ecut=    90.00 Ry     beta= 0.30
     Davidson diagonalization with overlap
     ethr =  7.05E-06,  avg # of iterations =  2.1

     negative rho (up, down):  2.912E-02 2.244E-02

     total cpu time spent up to now is      277.6 secs

     total energy              =   -1891.25938906 Ry
     estimated scf accuracy    <       0.00644180 Ry

     total magnetization       =    -0.01 Bohr mag/cell
     absolute magnetization    =     2.07 Bohr mag/cell

     iteration # 15     ecut=    90.00 Ry     beta= 0.30
     Davidson diagonalization with overlap
     ethr =  6.08E-06,  avg # of iterations =  1.4

     negative rho (up, down):  2.808E-02 2.245E-02

     total cpu time spent up to now is      295.3 secs

     total energy              =   -1891.25960492 Ry
     estimated scf accuracy    <       0.00413038 Ry

     total magnetization       =    -0.02 Bohr mag/cell
     absolute magnetization    =     2.05 Bohr mag/cell

     iteration # 16     ecut=    90.00 Ry     beta= 0.30
     Davidson diagonalization with overlap
     ethr =  3.90E-06,  avg # of iterations =  2.0

     negative rho (up, down):  2.246E-02 2.246E-02

     total cpu time spent up to now is      313.5 secs

     total energy              =   -1891.25977018 Ry
     estimated scf accuracy    <       0.00507771 Ry

     total magnetization       =    -0.02 Bohr mag/cell
     absolute magnetization    =     2.00 Bohr mag/cell

     iteration # 17     ecut=    90.00 Ry     beta= 0.30
     Davidson diagonalization with overlap
     ethr =  3.90E-06,  avg # of iterations =  2.8

     negative rho (up, down):  2.246E-02 2.246E-02

     total cpu time spent up to now is      332.6 secs

     total energy              =   -1891.26019159 Ry
     estimated scf accuracy    <       0.00213020 Ry

     total magnetization       =    -0.01 Bohr mag/cell
     absolute magnetization    =     1.93 Bohr mag/cell

     iteration # 18     ecut=    90.00 Ry     beta= 0.30
     Davidson diagonalization with overlap
     c_bands:  1 eigenvalues not converged
     ethr =  2.01E-06,  avg # of iterations =  3.1

     negative rho (up, down):  2.246E-02 2.246E-02

     total cpu time spent up to now is      351.2 secs

     total energy              =   -1891.26023532 Ry
     estimated scf accuracy    <       0.00198703 Ry

     total magnetization       =    -0.01 Bohr mag/cell
     absolute magnetization    =     1.91 Bohr mag/cell

     iteration # 19     ecut=    90.00 Ry     beta= 0.30
     Davidson diagonalization with overlap
     ethr =  1.87E-06,  avg # of iterations =  1.7

     negative rho (up, down):  2.246E-02 2.246E-02

     total cpu time spent up to now is      369.2 secs

     total energy              =   -1891.26022661 Ry
     estimated scf accuracy    <       0.00171551 Ry

     total magnetization       =    -0.02 Bohr mag/cell
     absolute magnetization    =     1.89 Bohr mag/cell

     iteration # 20     ecut=    90.00 Ry     beta= 0.30
     Davidson diagonalization with overlap
     ethr =  1.62E-06,  avg # of iterations =  1.4

     negative rho (up, down):  2.247E-02 2.247E-02

     total cpu time spent up to now is      386.9 secs

     total energy              =   -1891.26016453 Ry
     estimated scf accuracy    <       0.00102033 Ry

     total magnetization       =    -0.00 Bohr mag/cell
     absolute magnetization    =     1.88 Bohr mag/cell

     iteration # 21     ecut=    90.00 Ry     beta= 0.30
     Davidson diagonalization with overlap
     ethr =  9.63E-07,  avg # of iterations =  2.2

     negative rho (up, down):  2.247E-02 2.247E-02

     total cpu time spent up to now is      405.7 secs

     total energy              =   -1891.26023183 Ry
     estimated scf accuracy    <       0.00009622 Ry

     total magnetization       =    -0.00 Bohr mag/cell
     absolute magnetization    =     1.85 Bohr mag/cell

     iteration # 22     ecut=    90.00 Ry     beta= 0.30
     Davidson diagonalization with overlap
     ethr =  9.08E-08,  avg # of iterations =  3.3

     negative rho (up, down):  2.247E-02 2.247E-02

     total cpu time spent up to now is      425.6 secs

     total energy              =   -1891.26025774 Ry
     estimated scf accuracy    <       0.00013797 Ry

     total magnetization       =    -0.00 Bohr mag/cell
     absolute magnetization    =     1.85 Bohr mag/cell

     iteration # 23     ecut=    90.00 Ry     beta= 0.30
     Davidson diagonalization with overlap
     ethr =  9.08E-08,  avg # of iterations =  1.7

     negative rho (up, down):  2.247E-02 2.247E-02

     total cpu time spent up to now is      443.7 secs

     total energy              =   -1891.26026123 Ry
     estimated scf accuracy    <       0.00004023 Ry

     total magnetization       =    -0.00 Bohr mag/cell
     absolute magnetization    =     1.84 Bohr mag/cell

     iteration # 24     ecut=    90.00 Ry     beta= 0.30
     Davidson diagonalization with overlap
     ethr =  3.80E-08,  avg # of iterations =  3.0

     negative rho (up, down):  2.246E-02 2.246E-02

     total cpu time spent up to now is      463.1 secs

     total energy              =   -1891.26026453 Ry
     estimated scf accuracy    <       0.00000729 Ry

     total magnetization       =    -0.00 Bohr mag/cell
     absolute magnetization    =     1.84 Bohr mag/cell

     iteration # 25     ecut=    90.00 Ry     beta= 0.30
     Davidson diagonalization with overlap
     ethr =  6.88E-09,  avg # of iterations =  2.6

     negative rho (up, down):  2.246E-02 2.246E-02

     total cpu time spent up to now is      482.2 secs

     total energy              =   -1891.26026537 Ry
     estimated scf accuracy    <       0.00001116 Ry

     total magnetization       =    -0.00 Bohr mag/cell
     absolute magnetization    =     1.83 Bohr mag/cell

     iteration # 26     ecut=    90.00 Ry     beta= 0.30
     Davidson diagonalization with overlap
     ethr =  6.88E-09,  avg # of iterations =  1.0

     negative rho (up, down):  2.247E-02 2.247E-02

     total cpu time spent up to now is      499.3 secs

     total energy              =   -1891.26026566 Ry
     estimated scf accuracy    <       0.00001063 Ry

     total magnetization       =    -0.00 Bohr mag/cell
     absolute magnetization    =     1.83 Bohr mag/cell

     iteration # 27     ecut=    90.00 Ry     beta= 0.30
     Davidson diagonalization with overlap
     ethr =  6.88E-09,  avg # of iterations =  3.4

     negative rho (up, down):  2.247E-02 2.247E-02

     total cpu time spent up to now is      519.1 secs

     total energy              =   -1891.26026650 Ry
     estimated scf accuracy    <       0.00000496 Ry

     total magnetization       =    -0.00 Bohr mag/cell
     absolute magnetization    =     1.83 Bohr mag/cell

     iteration # 28     ecut=    90.00 Ry     beta= 0.30
     Davidson diagonalization with overlap
     ethr =  4.68E-09,  avg # of iterations =  3.2

     negative rho (up, down):  2.247E-02 2.247E-02

     total cpu time spent up to now is      538.4 secs

     total energy              =   -1891.26026724 Ry
     estimated scf accuracy    <       0.00000252 Ry

     total magnetization       =    -0.00 Bohr mag/cell
     absolute magnetization    =     1.83 Bohr mag/cell

     iteration # 29     ecut=    90.00 Ry     beta= 0.30
     Davidson diagonalization with overlap
     ethr =  2.38E-09,  avg # of iterations =  1.6

     negative rho (up, down):  2.247E-02 2.247E-02

     total cpu time spent up to now is      556.3 secs

     total energy              =   -1891.26026741 Ry
     estimated scf accuracy    <       0.00000054 Ry

     total magnetization       =    -0.00 Bohr mag/cell
     absolute magnetization    =     1.83 Bohr mag/cell

     iteration # 30     ecut=    90.00 Ry     beta= 0.30
     Davidson diagonalization with overlap
     ethr =  5.09E-10,  avg # of iterations =  2.3

     negative rho (up, down):  2.247E-02 2.247E-02

     total cpu time spent up to now is      575.4 secs

     total energy              =   -1891.26026749 Ry
     estimated scf accuracy    <       0.00000030 Ry

     total magnetization       =     0.00 Bohr mag/cell
     absolute magnetization    =     1.83 Bohr mag/cell

     iteration # 31     ecut=    90.00 Ry     beta= 0.30
     Davidson diagonalization with overlap
     ethr =  2.78E-10,  avg # of iterations =  2.6

     negative rho (up, down):  2.247E-02 2.247E-02

     total cpu time spent up to now is      594.2 secs

     total energy              =   -1891.26026753 Ry
     estimated scf accuracy    <       0.00000012 Ry

     total magnetization       =    -0.00 Bohr mag/cell
     absolute magnetization    =     1.83 Bohr mag/cell

     iteration # 32     ecut=    90.00 Ry     beta= 0.30
     Davidson diagonalization with overlap
     ethr =  1.17E-10,  avg # of iterations =  2.1

     negative rho (up, down):  2.247E-02 2.247E-02

     total cpu time spent up to now is      622.8 secs

     total energy              =   -1891.26026754 Ry
     estimated scf accuracy    <       0.00000004 Ry

     total magnetization       =    -0.00 Bohr mag/cell
     absolute magnetization    =     1.83 Bohr mag/cell

     iteration # 33     ecut=    90.00 Ry     beta= 0.30
     Davidson diagonalization with overlap
     ethr =  3.96E-11,  avg # of iterations =  2.2

     negative rho (up, down):  2.247E-02 2.247E-02

     total cpu time spent up to now is      658.8 secs

     total energy              =   -1891.26026755 Ry
     estimated scf accuracy    <       0.00000002 Ry

     total magnetization       =    -0.00 Bohr mag/cell
     absolute magnetization    =     1.83 Bohr mag/cell

     iteration # 34     ecut=    90.00 Ry     beta= 0.30
     Davidson diagonalization with overlap
     ethr =  2.28E-11,  avg # of iterations =  1.5

     negative rho (up, down):  2.247E-02 2.247E-02

     total cpu time spent up to now is      693.7 secs

     total energy              =   -1891.26026755 Ry
     estimated scf accuracy    <       0.00000002 Ry

     total magnetization       =    -0.00 Bohr mag/cell
     absolute magnetization    =     1.83 Bohr mag/cell

     iteration # 35     ecut=    90.00 Ry     beta= 0.30
     Davidson diagonalization with overlap
     ethr =  1.60E-11,  avg # of iterations =  2.2

     negative rho (up, down):  2.247E-02 2.247E-02

     total cpu time spent up to now is      732.2 secs

     total energy              =   -1891.26026756 Ry
     estimated scf accuracy    <       0.00000001 Ry

     total magnetization       =    -0.00 Bohr mag/cell
     absolute magnetization    =     1.83 Bohr mag/cell

     iteration # 36     ecut=    90.00 Ry     beta= 0.30
     Davidson diagonalization with overlap
     ethr =  1.19E-11,  avg # of iterations =  2.2

     negative rho (up, down):  2.247E-02 2.247E-02

     total cpu time spent up to now is      769.3 secs

     total energy              =   -1891.26026756 Ry
     estimated scf accuracy    <       0.00000001 Ry

     total magnetization       =    -0.00 Bohr mag/cell
     absolute magnetization    =     1.83 Bohr mag/cell

     iteration # 37     ecut=    90.00 Ry     beta= 0.30
     Davidson diagonalization with overlap
     ethr =  9.73E-12,  avg # of iterations =  1.7

     negative rho (up, down):  2.247E-02 2.247E-02

     total cpu time spent up to now is      804.3 secs

     total energy              =   -1891.26026756 Ry
     estimated scf accuracy    <          3.6E-09 Ry

     total magnetization       =    -0.00 Bohr mag/cell
     absolute magnetization    =     1.83 Bohr mag/cell

     iteration # 38     ecut=    90.00 Ry     beta= 0.30
     Davidson diagonalization with overlap
     ethr =  3.43E-12,  avg # of iterations =  3.2

     negative rho (up, down):  2.247E-02 2.247E-02

     total cpu time spent up to now is      843.6 secs

     total energy              =   -1891.26026756 Ry
     estimated scf accuracy    <          3.6E-09 Ry

     total magnetization       =    -0.00 Bohr mag/cell
     absolute magnetization    =     1.83 Bohr mag/cell

     iteration # 39     ecut=    90.00 Ry     beta= 0.30
     Davidson diagonalization with overlap
     ethr =  3.36E-12,  avg # of iterations =  1.7

     negative rho (up, down):  2.247E-02 2.247E-02

     total cpu time spent up to now is      877.9 secs

     total energy              =   -1891.26026756 Ry
     estimated scf accuracy    <          2.3E-09 Ry

     total magnetization       =    -0.00 Bohr mag/cell
     absolute magnetization    =     1.83 Bohr mag/cell

     iteration # 40     ecut=    90.00 Ry     beta= 0.30
     Davidson diagonalization with overlap
     ethr =  2.13E-12,  avg # of iterations =  2.1

     negative rho (up, down):  2.247E-02 2.247E-02

     total cpu time spent up to now is      914.1 secs

     total energy              =   -1891.26026757 Ry
     estimated scf accuracy    <          2.7E-09 Ry

     total magnetization       =    -0.00 Bohr mag/cell
     absolute magnetization    =     1.83 Bohr mag/cell

     iteration # 41     ecut=    90.00 Ry     beta= 0.30
     Davidson diagonalization with overlap
     ethr =  2.13E-12,  avg # of iterations =  2.8

     negative rho (up, down):  2.247E-02 2.247E-02

     total cpu time spent up to now is      953.1 secs

     total energy              =   -1891.26026757 Ry
     estimated scf accuracy    <          2.1E-09 Ry

     total magnetization       =    -0.00 Bohr mag/cell
     absolute magnetization    =     1.83 Bohr mag/cell

     iteration # 42     ecut=    90.00 Ry     beta= 0.30
     Davidson diagonalization with overlap
     ethr =  1.97E-12,  avg # of iterations =  1.0

     negative rho (up, down):  2.247E-02 2.247E-02
 
     Magnetic moment per site  (integrated on atomic sphere of radius R)
     atom   1 (R=0.257)  charge=  7.6045  magn=  0.0000
     atom   2 (R=0.296)  charge=  6.6894  magn= -0.0009
     atom   3 (R=0.296)  charge=  6.6894  magn=  0.0009
     atom   4 (R=0.200)  charge=  8.3061  magn= -0.0000
     atom   5 (R=0.209)  charge=  8.4593  magn=  0.7398
     atom   6 (R=0.209)  charge=  8.4593  magn= -0.7398
     atom   7 (R=0.200)  charge=  5.1704  magn=  0.0539
     atom   8 (R=0.200)  charge=  5.1704  magn= -0.0539
     atom   9 (R=0.200)  charge=  5.1632  magn=  0.0562
     atom  10 (R=0.200)  charge=  5.1632  magn= -0.0562
     atom  11 (R=0.200)  charge=  5.0725  magn= -0.0000
     atom  12 (R=0.200)  charge=  5.1020  magn= -0.0045
     atom  13 (R=0.200)  charge=  5.1020  magn=  0.0044

     total cpu time spent up to now is      986.7 secs

     End of self-consistent calculation

     =================== HUBBARD OCCUPATIONS ===================
     ------------------------ ATOM    5 ------------------------
     Tr[ns(  5)] (up, down, total) =   4.96798  4.24688  9.21486
     Atomic magnetic moment for atom   5 =   0.72109
     SPIN  1
     eigenvalues:
       0.985  0.988  0.998  0.998  0.999
     eigenvectors (columns):
      -0.201  0.980  0.000  0.000  0.000
      -0.000  0.000 -1.000  0.000  0.000
      -0.000  0.000 -0.000 -1.000  0.000
       0.980  0.201 -0.000 -0.000 -0.000
       0.000 -0.000  0.000  0.000  1.000
     occupation matrix ns (before diag.):
       0.988 -0.000 -0.000  0.001  0.000
      -0.000  0.998 -0.000  0.000  0.000
      -0.000 -0.000  0.998  0.000  0.000
       0.001  0.000  0.000  0.985 -0.000
       0.000  0.000  0.000 -0.000  0.999
     SPIN  2
     eigenvalues:
       0.267  0.986  0.998  0.998  0.999
     eigenvectors (columns):
      -0.032  0.999 -0.000 -0.000  0.000
      -0.000  0.000  1.000 -0.000  0.000
      -0.000  0.000  0.000  1.000  0.000
       0.999  0.032 -0.000 -0.000  0.000
       0.000 -0.000 -0.000 -0.000  1.000
     occupation matrix ns (before diag.):
       0.986 -0.000 -0.000  0.023  0.000
      -0.000  0.998 -0.000  0.000  0.000
      -0.000 -0.000  0.998  0.000  0.000
       0.023  0.000  0.000  0.267 -0.000
       0.000  0.000  0.000 -0.000  0.999
     ------------------------ ATOM    6 ------------------------
     Tr[ns(  6)] (up, down, total) =   4.24688  4.96798  9.21486
     Atomic magnetic moment for atom   6 =  -0.72109
     SPIN  1
     eigenvalues:
       0.267  0.986  0.998  0.998  0.999
     eigenvectors (columns):
      -0.032  0.999 -0.000 -0.000  0.000
      -0.000  0.000  1.000 -0.000  0.000
      -0.000  0.000  0.000  1.000  0.000
       0.999  0.032 -0.000 -0.000  0.000
       0.000 -0.000 -0.000 -0.000  1.000
     occupation matrix ns (before diag.):
       0.986 -0.000 -0.000  0.023  0.000
      -0.000  0.998 -0.000  0.000  0.000
      -0.000 -0.000  0.998  0.000  0.000
       0.023  0.000  0.000  0.267 -0.000
       0.000  0.000  0.000 -0.000  0.999
     SPIN  2
     eigenvalues:
       0.985  0.988  0.998  0.998  0.999
     eigenvectors (columns):
      -0.201  0.980  0.000  0.000  0.000
      -0.000  0.000 -1.000  0.000  0.000
      -0.000  0.000 -0.000 -1.000  0.000
       0.980  0.201 -0.000 -0.000 -0.000
       0.000 -0.000  0.000  0.000  1.000
     occupation matrix ns (before diag.):
       0.988 -0.000 -0.000  0.001  0.000
      -0.000  0.998 -0.000  0.000  0.000
      -0.000 -0.000  0.998  0.000  0.000
       0.001  0.000  0.000  0.985 -0.000
       0.000  0.000  0.000 -0.000  0.999

     Number of occupied Hubbard levels =   18.4297

 ------ SPIN UP ------------


          k = 0.0000 0.0000 0.0000 ( 17411 PWs)   bands (ev):

   -31.3277 -16.2730 -16.2523 -11.7508 -11.3275 -11.3078  -8.3690  -7.8365
    -7.5619  -7.4703  -7.0462  -6.9250  -6.8353  -1.4723  -1.4376  -1.3180
    -1.2942  -1.1762  -1.1350   1.1332   1.3302   1.4679   1.5048   1.5667
     1.8973   2.0136   2.0880   2.6137   4.6933   5.3276   5.3974   5.7515
     5.8038   5.9074   6.0758   6.1599   6.2753   6.3040   6.6526   6.8104
     6.8925   7.3370   7.3925   8.0011   8.1099   8.1842   8.1941   8.4002
     8.4807   8.5180   8.5853   8.7203   8.9251   8.9435  10.5076  11.9750
    12.8287  13.6316  13.7236  14.4032  14.8782  15.0388  15.5287  15.6773

          k = 0.0000 0.0000 0.0820 ( 17405 PWs)   bands (ev):

   -31.3277 -16.2735 -16.2518 -11.7510 -11.3275 -11.3078  -8.3659  -7.8408
    -7.5620  -7.4708  -7.0475  -6.9222  -6.8353  -1.4861  -1.4237  -1.3183
    -1.2938  -1.1765  -1.1346   1.1332   1.3302   1.4679   1.5048   1.5667
     1.9057   2.0136   2.0880   2.5944   4.7867   5.3244   5.3930   5.7583
     5.7782   5.8086   5.9045   6.0758   6.2761   6.6211   6.6733   6.8132
     6.8925   7.3380   7.4398   7.9755   8.1009   8.1851   8.2394   8.3793
     8.4185   8.4791   8.5771   8.7043   8.9310   8.9493  10.5071  12.1214
    12.7606  13.5360  13.8393  14.2604  14.8671  14.8782  15.5211  15.9894

          k = 0.0000 0.0000-0.1640 ( 17372 PWs)   bands (ev):

   -31.3277 -16.2739 -16.2513 -11.7512 -11.3275 -11.3078  -8.3628  -7.8451
    -7.5621  -7.4714  -7.0487  -6.9194  -6.8352  -1.4955  -1.4143  -1.3187
    -1.2935  -1.1769  -1.1342   1.1332   1.3302   1.4679   1.5048   1.5667
     1.9145   2.0136   2.0881   2.5751   4.9165   5.3213   5.3887   5.5313
     5.7653   5.8133   5.9015   6.0758   6.2770   6.6347   6.7928   6.8487
     6.8925   7.3390   7.5088   7.9564   8.0925   8.2032   8.2238   8.3101
     8.4187   8.4376   8.5757   8.6875   8.9364   8.9546  10.5065  12.3953
    12.5453  13.4842  14.0394  14.0836  14.6087  14.8782  15.7872  16.0090

          k = 0.0000 0.2450 0.0000 ( 17390 PWs)   bands (ev):

   -31.3236 -16.2246 -16.2048 -11.6558 -11.5771 -11.3010  -8.0185  -7.7271
    -7.6612  -7.3214  -7.1909  -7.1127  -6.9012  -1.4790  -1.4112  -1.3109
    -1.2609  -1.0868  -1.0440   0.6279   1.0677   1.3931   1.4944   1.6120
     1.9063   2.0067   2.0478   2.5534   4.4541   4.7832   5.3189   5.4906
     5.7516   5.7557   5.9486   6.1472   6.3179   6.4030   6.4891   6.8159
     6.8987   7.5115   7.6174   7.6570   7.7910   7.8470   7.9360   8.1736
     8.2805   8.3851   8.5768   8.6442   8.8772  10.0760  10.9079  13.1858
    13.4039  14.5324  14.6916  14.7471  14.8284  15.7368  15.8285  15.9541

          k = 0.0000 0.2450 0.0820 ( 17376 PWs)   bands (ev):

   -31.3236 -16.2249 -16.2045 -11.6559 -11.5771 -11.3010  -8.0165  -7.7278
    -7.6600  -7.3282  -7.1948  -7.1050  -6.9008  -1.4881  -1.4017  -1.3086
    -1.2632  -1.0875  -1.0432   0.6278   1.0676   1.3931   1.4943   1.6120
     1.9146   2.0067   2.0466   2.5387   4.4811   4.7991   5.3089   5.4915
     5.7471   5.7536   5.9357   6.0966   6.1681   6.3189   6.7735   6.8521
     6.9728   7.4331   7.6108   7.7362   7.7556   7.7559   8.0353   8.1797
     8.2564   8.3770   8.4881   8.6481   8.8708  10.1046  10.9074  13.2050
    13.3960  14.5833  14.6522  14.8282  14.8480  15.3790  15.7518  15.9208

          k = 0.0000 0.2450-0.1640 ( 17366 PWs)   bands (ev):

   -31.3236 -16.2252 -16.2042 -11.6560 -11.5771 -11.3010  -8.0145  -7.7284
    -7.6590  -7.3349  -7.1978  -7.0983  -6.9004  -1.4956  -1.3940  -1.3062
    -1.2659  -1.0882  -1.0426   0.6277   1.0676   1.3931   1.4943   1.6120
     1.9234   2.0067   2.0451   2.5240   4.5072   4.8204   5.3055   5.4699
     5.7514   5.7573   5.9248   5.9568   6.1874   6.3198   6.7944   6.8692
     7.2412   7.3846   7.5279   7.6715   7.7053   7.8304   8.0637   8.2232
     8.2958   8.3253   8.3724   8.6514   8.8652  10.1314  10.9069  13.2271
    13.3849  14.5525  14.8280  14.8567  14.9035  15.0287  15.6967  15.8367

          k = 0.0000-0.4900 0.0000 ( 17366 PWs)   bands (ev):

   -31.3197 -16.1751 -16.1568 -11.7921 -11.5538 -11.2940  -7.8455  -7.6097
    -7.5485  -7.3499  -7.3316  -7.2161  -6.9425  -1.4579  -1.3877  -1.2997
    -1.2424  -0.9930  -0.9482   0.0685   1.0100   1.3275   1.4764   1.5550
     1.9163   1.9928   2.0644   2.3988   3.7176   4.5873   5.0739   5.2231
     5.8865   6.0170   6.0224   6.0578   6.3944   6.5340   6.7100   6.9682
     7.0366   7.1040   7.2464   7.2750   7.4023   7.4673   7.9796   8.0517
     8.1188   8.4014   8.5980   8.8078   8.9848  10.8892  11.0387  13.9776
    14.2306  14.7763  15.2886  15.3191  15.4194  15.6747  15.8887  16.4265

          k = 0.0000-0.4900 0.0820 ( 17382 PWs)   bands (ev):

   -31.3197 -16.1752 -16.1569 -11.7921 -11.5538 -11.2940  -7.8534  -7.5800
    -7.5418  -7.3893  -7.3419  -7.1987  -6.9388  -1.4696  -1.3755  -1.2989
    -1.2434  -0.9940  -0.9471   0.0686   1.0099   1.3276   1.4764   1.5534
     1.9256   1.9928   2.0649   2.3853   3.7214   4.5943   5.0678   5.2070
     5.8392   6.0157   6.0597   6.1154   6.4311   6.4702   6.7234   6.9861
     7.0076   7.0390   7.2689   7.2972   7.4321   7.5025   8.0083   8.0542
     8.0703   8.3972   8.5582   8.8031   8.9799  10.8814  11.0650  14.0943
    14.2335  14.7765  14.9489  15.2520  15.5123  15.7536  16.1045  16.3285

          k = 0.0000-0.4900-0.1640 ( 17368 PWs)   bands (ev):

   -31.3197 -16.1752 -16.1570 -11.7921 -11.5538 -11.2940  -7.8605  -7.5380
    -7.5344  -7.4374  -7.3528  -7.1856  -6.9351  -1.4788  -1.3659  -1.2980
    -1.2444  -0.9950  -0.9461   0.0686   1.0097   1.3277   1.4764   1.5518
     1.9354   1.9929   2.0655   2.3713   3.7252   4.6016   5.0619   5.1909
     5.8107   6.0144   6.0616   6.2261   6.3715   6.4715   6.7366   6.9579
     7.0242   7.0414   7.1494   7.3180   7.5090   7.6862   7.7828   8.0568
     8.1660   8.3929   8.5039   8.7984   8.9752  10.8756  11.0890  14.2364
    14.3352  14.5683  14.7768  15.2146  15.5807  15.8885  16.1572  16.2439

          k = 0.2500 0.0000 0.0000 ( 17422 PWs)   bands (ev):

   -31.3223 -16.2138 -16.1968 -11.6440 -11.5865 -11.3189  -8.0139  -7.9432
    -7.5664  -7.3519  -7.1865  -6.9532  -6.9133  -1.6014  -1.4440  -1.2124
    -1.2087  -1.1916  -1.1421   0.5371   1.0496   1.3736   1.5567   1.5826
     1.9126   1.9892   2.0818   2.5701   4.6887   5.2446   5.6622   5.7200
     5.7860   5.9463   5.9853   5.9937   6.3560   6.4114   6.8108   6.8606
     6.8994   7.2399   7.5027   7.5434   7.7423   7.8653   7.9487   8.1602
     8.1670   8.4033   8.5769   8.5794   8.6508   8.6580  10.8442  13.0226
    13.4865  14.5894  14.7140  14.7771  15.2477  15.9024  16.1583  16.2150

          k = 0.2500 0.0000 0.0820 ( 17434 PWs)   bands (ev):

   -31.3222 -16.2141 -16.1965 -11.6441 -11.5865 -11.3189  -8.0133  -7.9435
    -7.5625  -7.3558  -7.1908  -6.9458  -6.9170  -1.5949  -1.4513  -1.2131
    -1.2114  -1.1909  -1.1391   0.5371   1.0495   1.3736   1.5566   1.5827
     1.9179   1.9911   2.0818   2.5578   4.7260   5.2407   5.6592   5.7207
     5.7948   5.9020   5.9203   6.0216   6.2056   6.6415   6.8129   6.8606
     6.9312   7.2072   7.4892   7.5521   7.7323   7.8009   7.9929   8.1849
     8.1960   8.3819   8.5043   8.5846   8.6097   8.7316  10.8431  13.0715
    13.4814  14.5099  14.7498  14.7778  15.1094  15.8407  16.0704  16.0716

          k = 0.2500 0.0000-0.1640 ( 17406 PWs)   bands (ev):

   -31.3222 -16.2144 -16.1962 -11.6442 -11.5864 -11.3189  -8.0128  -7.9437
    -7.5584  -7.3599  -7.1949  -6.9351  -6.9240  -1.5877  -1.4592  -1.2139
    -1.2137  -1.1903  -1.1362   0.5372   1.0495   1.3736   1.5566   1.5829
     1.9231   1.9934   2.0819   2.5452   4.7671   5.2353   5.6522   5.7215
     5.8091   5.8474   5.8686   6.0415   6.1678   6.7127   6.8557   6.8606
     7.0479   7.0955   7.4650   7.5987   7.7229   7.7249   7.9978   8.2144
     8.2985   8.3556   8.3990   8.5874   8.5893   8.7698  10.8419  13.1290
    13.4683  14.4394  14.7784  14.8316  14.9372  15.6979  16.0113  16.2634

          k = 0.2500 0.2450 0.0000 ( 17426 PWs)   bands (ev):

   -31.3179 -16.1714 -16.1551 -11.5787 -11.5570 -11.5557  -7.7777  -7.6846
    -7.4844  -7.3441  -7.1988  -7.0585  -6.9756  -1.6619  -1.6337  -1.4981
    -1.4419  -1.1505  -1.1374   0.2360   0.9894   1.3007   1.4017   1.6435
     1.8705   1.9191   2.0799   2.4743   4.2130   4.6240   4.8490   5.0864
     5.5846   6.0443   6.1251   6.1974   6.5200   6.6472   6.7244   7.0300
     7.1002   7.2372   7.2678   7.4924   8.0161   8.0868   8.1294   8.2900
     8.3816   8.3858   8.6025   8.8366   9.0013  10.1107  11.7041  13.2017
    13.8672  14.2610  14.8514  15.5207  15.5990  15.8215  16.0700  16.0919

          k = 0.2500 0.2450 0.0820 ( 17418 PWs)   bands (ev):

   -31.3179 -16.1716 -16.1548 -11.5787 -11.5570 -11.5557  -7.7765  -7.6879
    -7.4792  -7.3429  -7.2064  -7.0553  -6.9756  -1.6596  -1.6365  -1.4944
    -1.4447  -1.1560  -1.1326   0.2360   0.9893   1.3008   1.4027   1.6437
     1.8758   1.9168   2.0796   2.4697   4.2592   4.5975   4.6775   5.3132
     5.5789   6.0453   6.1114   6.2063   6.2754   6.7151   6.8482   7.0495
     7.0817   7.2284   7.3373   7.4941   8.0019   8.0082   8.1603   8.3100
     8.3480   8.3857   8.5829   8.8170   9.0098  10.1423  11.7041  13.2202
    13.8455  14.2792  14.9358  15.4527  15.5708  15.7152  15.8393  15.9810

          k = 0.2500 0.2450-0.1640 ( 17420 PWs)   bands (ev):

   -31.3178 -16.1719 -16.1546 -11.5787 -11.5571 -11.5557  -7.7752  -7.6912
    -7.4740  -7.3414  -7.2142  -7.0523  -6.9756  -1.6568  -1.6396  -1.4905
    -1.4477  -1.1599  -1.1293   0.2360   0.9892   1.3009   1.4038   1.6439
     1.8819   1.9139   2.0793   2.4650   4.3594   4.4513   4.6442   5.5226
     5.5536   6.0317   6.0476   6.1577   6.2163   6.7200   6.9308   7.0503
     7.0793   7.2412   7.4117   7.4956   7.9233   7.9918   8.1758   8.3126
     8.3347   8.3803   8.5676   8.7979   9.0175  10.1723  11.7041  13.2399
    13.8223  14.2983  15.0952  15.3176  15.4696  15.6405  15.7639  15.9238

          k = 0.2500-0.4900 0.0000 ( 17414 PWs)   bands (ev):

   -31.3132 -16.1280 -16.1126 -11.7725 -11.5608 -11.4624  -7.6380  -7.4792
    -7.3437  -7.2364  -7.2205  -7.1178  -7.1132  -1.6687  -1.6259  -1.5721
    -1.5702  -1.3996  -1.3825  -0.1442   0.9335   1.2397   1.3941   1.5941
     1.7987   1.9002   2.1037   2.2906   3.6640   3.9558   4.6618   5.1132
     5.3241   5.8984   6.1112   6.1864   6.5367   6.8742   6.9342   6.9967
     7.0155   7.3839   7.6479   7.8850   8.0979   8.1677   8.2759   8.3883
     8.5248   8.6452   8.7427   8.9025   8.9879  10.8155  12.1248  13.0054
    13.7106  14.4505  15.1722  15.8325  16.0424  16.1606  16.3285  16.4001

          k = 0.2500-0.4900 0.0820 ( 17414 PWs)   bands (ev):

   -31.3132 -16.1281 -16.1126 -11.7725 -11.5608 -11.4624  -7.6471  -7.4524
    -7.3431  -7.2684  -7.2210  -7.1132  -7.1035  -1.6673  -1.6274  -1.5760
    -1.5664  -1.4058  -1.3764  -0.1442   0.9329   1.2396   1.3947   1.5949
     1.8017   1.8992   2.1033   2.2891   3.7031   3.9580   4.4375   5.3222
     5.3962   5.9111   6.1060   6.1749   6.5318   6.6612   6.9897   7.0081
     7.0103   7.5008   7.6484   7.8759   8.0092   8.2029   8.2690   8.3634
     8.5389   8.6403   8.7604   8.9046   8.9683  10.8610  12.1261  13.0208
    13.6775  14.5509  15.1982  15.4997  15.9421  16.0853  16.3884  16.4484

          k = 0.2500-0.4900-0.1640 ( 17432 PWs)   bands (ev):

   -31.3132 -16.1281 -16.1126 -11.7725 -11.5609 -11.4624  -7.6548  -7.4190
    -7.3426  -7.3052  -7.2214  -7.1132  -7.0926  -1.6658  -1.6290  -1.5812
    -1.5604  -1.4124  -1.3707  -0.1442   0.9323   1.2395   1.3953   1.5958
     1.8048   1.8981   2.1029   2.2876   3.7539   3.9636   4.2733   5.3203
     5.6538   5.9243   6.0823   6.1497   6.5001   6.5261   6.9835   7.0045
     7.0264   7.6428   7.6567   7.8688   7.8748   8.2405   8.2645   8.3350
     8.5501   8.6354   8.7811   8.9067   8.9451  10.9060  12.1275  13.0378
    13.6424  14.7248  15.1600  15.2275  15.9023  16.0177  16.4383  16.4772

          k =-0.5000 0.0000 0.0000 ( 17502 PWs)   bands (ev):

   -31.3170 -16.1529 -16.1406 -11.8248 -11.5281 -11.3101  -8.0720  -7.7393
    -7.6054  -7.3259  -7.1435  -7.0458  -6.9161  -1.6837  -1.4064  -1.2664
    -1.1852  -1.1005  -1.0830  -0.0668   0.9767   1.2920   1.4945   1.5381
     1.9574   1.9942   2.0670   2.4351   4.5176   5.0861   5.6074   5.7359
     5.7834   5.8285   6.1369   6.1496   6.5413   6.8155   6.8298   6.8594
     7.0445   7.0670   7.0836   7.1899   7.5229   7.5351   7.8838   8.0377
     8.0407   8.0544   8.2910   8.5338   8.6599   8.8237  10.9237  13.6043
    14.6035  14.6905  15.3952  15.8317  15.9111  16.0114  16.1335  16.2347

          k =-0.5000 0.0000 0.0820 ( 17452 PWs)   bands (ev):

   -31.3170 -16.1530 -16.1406 -11.8248 -11.5281 -11.3101  -8.0785  -7.7146
    -7.6053  -7.3713  -7.1091  -7.0459  -6.9235  -1.6745  -1.4166  -1.2666
    -1.1849  -1.1015  -1.0820  -0.0669   0.9766   1.2921   1.4951   1.5381
     1.9641   1.9938   2.0670   2.4271   4.5228   5.0625   5.6186   5.7168
     5.8096   5.8139   6.1675   6.2353   6.5296   6.7510   6.7535   6.8277
     7.0226   7.0862   7.1428   7.2630   7.3936   7.6681   7.7752   8.0403
     8.0619   8.1334   8.2853   8.5115   8.6049   8.8615  10.9221  13.6316
    14.5623  14.6906  15.4108  15.7468  15.8789  15.9670  16.1587  16.1694

          k =-0.5000 0.0000-0.1640 ( 17456 PWs)   bands (ev):

   -31.3171 -16.1531 -16.1406 -11.8248 -11.5281 -11.3101  -8.0844  -7.6863
    -7.6053  -7.4136  -7.0801  -7.0461  -6.9326  -1.6645  -1.4276  -1.2669
    -1.1846  -1.1024  -1.0812  -0.0669   0.9766   1.2921   1.4956   1.5381
     1.9710   1.9933   2.0670   2.4189   4.5281   5.0400   5.6356   5.6925
     5.8027   5.8344   6.1857   6.4441   6.5111   6.5169   6.7097   6.8257
     7.0564   7.0888   7.1567   7.3032   7.4953   7.5470   7.7358   8.0400
     8.0698   8.2504   8.2791   8.4946   8.5221   8.8929  10.9204  13.6618
    14.5166  14.6907  15.4279  15.6620  15.8421  15.9548  16.1186  16.2134

          k =-0.5000 0.2450 0.0000 ( 17418 PWs)   bands (ev):

   -31.3119 -16.1167 -16.1044 -11.8079 -11.5470 -11.4487  -7.8383  -7.5586
    -7.3147  -7.2226  -7.1993  -7.0528  -6.9625  -1.6953  -1.6550  -1.5829
    -1.5782  -1.5039  -1.4023  -0.2217   0.9128   1.2199   1.4559   1.5384
     1.8196   1.9707   2.0347   2.3122   3.7655   4.5738   4.6485   5.1488
     5.5820   6.0289   6.1059   6.1651   6.5888   6.7665   6.9904   7.0543
     7.1930   7.4028   7.4302   7.9712   8.0363   8.1853   8.2018   8.2956
     8.3966   8.5248   8.6031   8.6819   8.8502  10.1380  12.0385  12.8022
    13.6117  14.8803  15.6146  15.7807  15.9186  15.9511  16.1577  16.5487

          k =-0.5000 0.2450 0.0820 ( 17406 PWs)   bands (ev):

   -31.3119 -16.1168 -16.1043 -11.8079 -11.5471 -11.4487  -7.8440  -7.5386
    -7.3147  -7.2528  -7.1993  -7.0313  -6.9683  -1.6891  -1.6556  -1.5875
    -1.5732  -1.5031  -1.4100  -0.2217   0.9136   1.2193   1.4564   1.5392
     1.8212   1.9695   2.0344   2.3119   3.8193   4.3810   4.6485   5.3502
     5.5880   6.0603   6.1058   6.1704   6.5613   6.6197   6.9864   7.0275
     7.2923   7.4542   7.4571   7.8778   8.0436   8.1350   8.2552   8.3161
     8.3858   8.5031   8.6025   8.6659   8.8518  10.1674  12.0397  12.8291
    13.6283  14.8358  15.5743  15.6390  15.9558  16.0000  16.0682  16.6634

          k =-0.5000 0.2450-0.1640 ( 17416 PWs)   bands (ev):

   -31.3119 -16.1169 -16.1043 -11.8079 -11.5471 -11.4487  -7.8492  -7.5161
    -7.3147  -7.2826  -7.1993  -7.0082  -6.9789  -1.6824  -1.6562  -1.5916
    -1.5688  -1.5022  -1.4182  -0.2217   0.9144   1.2186   1.4568   1.5399
     1.8228   1.9683   2.0340   2.3116   3.9070   4.2008   4.6486   5.4959
     5.6202   6.0987   6.1037   6.1831   6.4757   6.5272   6.9828   7.0057
     7.3312   7.4797   7.6272   7.7002   8.0474   8.1130   8.2916   8.3299
     8.3714   8.4814   8.6021   8.6493   8.8533  10.1959  12.0409  12.8571
    13.6455  14.7812  15.5414  15.6242  15.9114  15.9388  16.0506  16.7586

          k =-0.5000-0.4900 0.0000 ( 17452 PWs)   bands (ev):

   -31.3078 -16.0807 -16.0685 -11.7916 -11.7537 -11.3655  -7.4106  -7.3565
    -7.3435  -7.3348  -7.1298  -6.9966  -6.8726  -2.0231  -2.0207  -1.9923
    -1.7874  -1.6790  -1.4142  -0.4377   0.8564   1.1753   1.3802   1.5446
     1.6036   1.8795   2.0415   2.1111   3.2128   3.8977   4.2932   5.1470
     5.4445   5.7842   6.0693   6.2666   6.3676   7.1984   7.2147   7.4176
     7.4450   7.4890   7.9273   8.0244   8.0509   8.4164   8.4600   8.6883
     8.7135   9.0203   9.0273   9.1184   9.8378  10.6552  12.1027  12.9715
    13.1577  14.9418  15.0211  15.4706  15.4978  15.6904  15.9307  16.6926

          k =-0.5000-0.4900 0.0820 ( 17460 PWs)   bands (ev):

   -31.3078 -16.0808 -16.0683 -11.7916 -11.7537 -11.3655  -7.4106  -7.3734
    -7.3340  -7.3252  -7.1307  -6.9966  -6.8741  -2.0242  -2.0190  -1.9941
    -1.7859  -1.6647  -1.4309  -0.4377   0.8608   1.1730   1.3810   1.5450
     1.6026   1.8783   2.0410   2.1115   3.2772   3.8498   4.1376   5.3835
     5.4432   5.8195   6.0717   6.2650   6.3215   7.0630   7.2030   7.4379
     7.4561   7.4880   7.9420   7.9479   8.1061   8.4172   8.4603   8.6945
     8.7018   9.0206   9.0268   9.1150   9.8378  10.7416  12.1119  12.9664
    13.0999  15.0362  15.0542  15.3169  15.5034  15.9119  16.0096  16.2315

          k =-0.5000-0.4900-0.1640 ( 17448 PWs)   bands (ev):

   -31.3078 -16.0810 -16.0682 -11.7917 -11.7538 -11.3655  -7.4106  -7.3820
    -7.3332  -7.3150  -7.1316  -6.9966  -6.8757  -2.0254  -2.0170  -1.9962
    -1.7845  -1.6480  -1.4500  -0.4377   0.8653   1.1707   1.3817   1.5454
     1.6017   1.8772   2.0406   2.1119   3.3745   3.7378   4.0527   5.4420
     5.6042   5.8621   6.0770   6.2634   6.2683   6.8924   7.2072   7.4606
     7.4614   7.4870   7.9008   7.9571   8.1294   8.4181   8.4605   8.6894
     8.7006   9.0209   9.0263   9.1118   9.8378  10.8292  12.1211  12.9537
    13.0470  15.0919  15.1796  15.2320  15.5384  15.8854  15.8904  16.3132

 ------ SPIN DOWN ----------


          k = 0.0000 0.0000 0.0000 ( 17411 PWs)   bands (ev):

   -31.3277 -16.2730 -16.2523 -11.7508 -11.3275 -11.3078  -8.3690  -7.8366
    -7.5619  -7.4703  -7.0463  -6.9251  -6.8353  -1.4723  -1.4376  -1.3180
    -1.2942  -1.1762  -1.1350   1.1332   1.3302   1.4679   1.5049   1.5666
     1.8973   2.0135   2.0881   2.6137   4.6933   5.3276   5.3974   5.7515
     5.8038   5.9073   6.0758   6.1599   6.2753   6.3040   6.6526   6.8104
     6.8925   7.3370   7.3925   8.0011   8.1099   8.1841   8.1941   8.4002
     8.4807   8.5180   8.5852   8.7202   8.9250   8.9434  10.5076  11.9750
    12.8287  13.6316  13.7236  14.4032  14.8782  15.0388  15.5287  15.6773

          k = 0.0000 0.0000 0.0820 ( 17405 PWs)   bands (ev):

   -31.3277 -16.2735 -16.2518 -11.7510 -11.3275 -11.3078  -8.3659  -7.8409
    -7.5620  -7.4708  -7.0476  -6.9223  -6.8353  -1.4861  -1.4237  -1.3183
    -1.2938  -1.1765  -1.1346   1.1332   1.3302   1.4679   1.5049   1.5666
     1.9057   2.0135   2.0881   2.5944   4.7867   5.3244   5.3930   5.7583
     5.7782   5.8086   5.9045   6.0758   6.2761   6.6211   6.6733   6.8132
     6.8925   7.3380   7.4398   7.9755   8.1009   8.1851   8.2393   8.3792
     8.4185   8.4791   8.5771   8.7042   8.9309   8.9492  10.5071  12.1214
    12.7606  13.5360  13.8393  14.2604  14.8671  14.8782  15.5211  15.9895

          k = 0.0000 0.0000-0.1640 ( 17372 PWs)   bands (ev):

   -31.3277 -16.2739 -16.2513 -11.7512 -11.3275 -11.3078  -8.3628  -7.8452
    -7.5621  -7.4714  -7.0488  -6.9195  -6.8353  -1.4955  -1.4143  -1.3187
    -1.2935  -1.1769  -1.1342   1.1332   1.3302   1.4679   1.5049   1.5666
     1.9145   2.0136   2.0882   2.5751   4.9165   5.3213   5.3887   5.5313
     5.7653   5.8133   5.9015   6.0758   6.2770   6.6347   6.7928   6.8486
     6.8925   7.3390   7.5088   7.9564   8.0925   8.2032   8.2237   8.3101
     8.4187   8.4376   8.5757   8.6874   8.9363   8.9546  10.5065  12.3953
    12.5453  13.4842  14.0394  14.0836  14.6087  14.8782  15.7872  16.0090

          k = 0.0000 0.2450 0.0000 ( 17390 PWs)   bands (ev):

   -31.3236 -16.2246 -16.2048 -11.6558 -11.5771 -11.3010  -8.0185  -7.7272
    -7.6612  -7.3215  -7.1910  -7.1128  -6.9012  -1.4790  -1.4112  -1.3109
    -1.2609  -1.0868  -1.0440   0.6278   1.0677   1.3931   1.4944   1.6119
     1.9063   2.0066   2.0479   2.5533   4.4540   4.7831   5.3189   5.4906
     5.7516   5.7557   5.9486   6.1471   6.3179   6.4030   6.4891   6.8159
     6.8987   7.5114   7.6174   7.6570   7.7909   7.8469   7.9359   8.1735
     8.2805   8.3851   8.5767   8.6441   8.8771  10.0760  10.9079  13.1858
    13.4039  14.5324  14.6916  14.7471  14.8284  15.7368  15.8285  15.9541

          k = 0.0000 0.2450 0.0820 ( 17376 PWs)   bands (ev):

   -31.3236 -16.2249 -16.2045 -11.6559 -11.5771 -11.3010  -8.0165  -7.7278
    -7.6600  -7.3282  -7.1948  -7.1051  -6.9008  -1.4881  -1.4018  -1.3086
    -1.2632  -1.0875  -1.0432   0.6277   1.0676   1.3931   1.4944   1.6120
     1.9146   2.0066   2.0466   2.5387   4.4810   4.7991   5.3089   5.4914
     5.7471   5.7536   5.9357   6.0966   6.1681   6.3189   6.7735   6.8521
     6.9728   7.4330   7.6108   7.7361   7.7556   7.7559   8.0353   8.1796
     8.2564   8.3770   8.4881   8.6480   8.8707  10.1046  10.9074  13.2050
    13.3960  14.5833  14.6522  14.8282  14.8480  15.3790  15.7518  15.9208

          k = 0.0000 0.2450-0.1640 ( 17366 PWs)   bands (ev):

   -31.3236 -16.2252 -16.2042 -11.6560 -11.5771 -11.3010  -8.0145  -7.7285
    -7.6590  -7.3349  -7.1978  -7.0984  -6.9004  -1.4956  -1.3940  -1.3062
    -1.2659  -1.0882  -1.0426   0.6277   1.0676   1.3932   1.4944   1.6120
     1.9234   2.0066   2.0451   2.5239   4.5072   4.8204   5.3055   5.4698
     5.7514   5.7573   5.9248   5.9568   6.1874   6.3198   6.7944   6.8692
     7.2412   7.3846   7.5279   7.6714   7.7053   7.8304   8.0637   8.2232
     8.2957   8.3253   8.3723   8.6514   8.8651  10.1314  10.9069  13.2271
    13.3849  14.5525  14.8280  14.8567  14.9034  15.0287  15.6967  15.8367

          k = 0.0000-0.4900 0.0000 ( 17366 PWs)   bands (ev):

   -31.3197 -16.1751 -16.1568 -11.7921 -11.5538 -11.2940  -7.8455  -7.6098
    -7.5485  -7.3499  -7.3317  -7.2161  -6.9425  -1.4579  -1.3877  -1.2997
    -1.2425  -0.9930  -0.9482   0.0685   1.0100   1.3275   1.4765   1.5549
     1.9164   1.9927   2.0645   2.3987   3.7176   4.5873   5.0738   5.2231
     5.8865   6.0170   6.0223   6.0578   6.3944   6.5340   6.7099   6.9681
     7.0366   7.1040   7.2465   7.2749   7.4022   7.4673   7.9796   8.0517
     8.1188   8.4014   8.5980   8.8077   8.9847  10.8892  11.0387  13.9776
    14.2306  14.7763  15.2886  15.3191  15.4194  15.6747  15.8887  16.4266

          k = 0.0000-0.4900 0.0820 ( 17382 PWs)   bands (ev):

   -31.3197 -16.1752 -16.1569 -11.7921 -11.5538 -11.2940  -7.8534  -7.5800
    -7.5418  -7.3893  -7.3420  -7.1987  -6.9388  -1.4696  -1.3755  -1.2989
    -1.2434  -0.9940  -0.9471   0.0685   1.0099   1.3276   1.4765   1.5533
     1.9257   1.9927   2.0650   2.3852   3.7214   4.5943   5.0677   5.2071
     5.8392   6.0157   6.0597   6.1154   6.4311   6.4702   6.7234   6.9861
     7.0076   7.0390   7.2688   7.2971   7.4321   7.5025   8.0082   8.0542
     8.0702   8.3972   8.5582   8.8031   8.9798  10.8814  11.0650  14.0943
    14.2335  14.7765  14.9489  15.2520  15.5123  15.7536  16.1044  16.3285

          k = 0.0000-0.4900-0.1640 ( 17368 PWs)   bands (ev):

   -31.3197 -16.1752 -16.1570 -11.7921 -11.5538 -11.2940  -7.8605  -7.5381
    -7.5345  -7.4374  -7.3529  -7.1856  -6.9351  -1.4788  -1.3659  -1.2980
    -1.2444  -0.9950  -0.9461   0.0685   1.0097   1.3277   1.4765   1.5517
     1.9355   1.9928   2.0655   2.3712   3.7251   4.6016   5.0618   5.1910
     5.8106   6.0144   6.0616   6.2261   6.3715   6.4715   6.7366   6.9579
     7.0242   7.0414   7.1493   7.3179   7.5090   7.6863   7.7828   8.0568
     8.1660   8.3929   8.5039   8.7984   8.9751  10.8756  11.0890  14.2364
    14.3352  14.5683  14.7768  15.2146  15.5807  15.8885  16.1571  16.2439

          k = 0.2500 0.0000 0.0000 ( 17422 PWs)   bands (ev):

   -31.3223 -16.2138 -16.1968 -11.6440 -11.5865 -11.3189  -8.0139  -7.9433
    -7.5664  -7.3519  -7.1866  -6.9533  -6.9134  -1.6014  -1.4440  -1.2124
    -1.2087  -1.1916  -1.1421   0.5372   1.0496   1.3736   1.5566   1.5827
     1.9126   1.9891   2.0819   2.5701   4.6887   5.2446   5.6622   5.7199
     5.7860   5.9463   5.9853   5.9937   6.3560   6.4113   6.8108   6.8606
     6.8994   7.2399   7.5027   7.5434   7.7423   7.8653   7.9487   8.1602
     8.1670   8.4032   8.5768   8.5793   8.6508   8.6580  10.8442  13.0226
    13.4865  14.5894  14.7140  14.7771  15.2477  15.9024  16.1582  16.2138

          k = 0.2500 0.0000 0.0820 ( 17434 PWs)   bands (ev):

   -31.3222 -16.2141 -16.1965 -11.6441 -11.5865 -11.3189  -8.0133  -7.9435
    -7.5625  -7.3558  -7.1909  -6.9458  -6.9170  -1.5949  -1.4513  -1.2131
    -1.2114  -1.1909  -1.1391   0.5372   1.0495   1.3736   1.5566   1.5828
     1.9179   1.9911   2.0819   2.5578   4.7260   5.2407   5.6591   5.7207
     5.7948   5.9019   5.9203   6.0216   6.2056   6.6415   6.8129   6.8606
     6.9312   7.2072   7.4892   7.5521   7.7323   7.8009   7.9929   8.1849
     8.1960   8.3818   8.5042   8.5845   8.6096   8.7316  10.8431  13.0715
    13.4815  14.5099  14.7498  14.7778  15.1094  15.8407  16.0707  16.0716

          k = 0.2500 0.0000-0.1640 ( 17406 PWs)   bands (ev):

   -31.3222 -16.2144 -16.1962 -11.6442 -11.5864 -11.3189  -8.0128  -7.9438
    -7.5584  -7.3599  -7.1950  -6.9351  -6.9241  -1.5877  -1.4592  -1.2139
    -1.2137  -1.1903  -1.1362   0.5372   1.0495   1.3737   1.5566   1.5829
     1.9231   1.9933   2.0819   2.5452   4.7671   5.2352   5.6522   5.7215
     5.8090   5.8474   5.8686   6.0415   6.1677   6.7127   6.8557   6.8606
     7.0478   7.0955   7.4650   7.5987   7.7229   7.7249   7.9978   8.2144
     8.2985   8.3555   8.3989   8.5873   8.5892   8.7698  10.8419  13.1290
    13.4684  14.4394  14.7784  14.8316  14.9372  15.6979  16.0113  16.2642

          k = 0.2500 0.2450 0.0000 ( 17426 PWs)   bands (ev):

   -31.3179 -16.1714 -16.1551 -11.5787 -11.5570 -11.5557  -7.7778  -7.6846
    -7.4844  -7.3441  -7.1988  -7.0585  -6.9756  -1.6619  -1.6337  -1.4981
    -1.4419  -1.1505  -1.1374   0.2360   0.9894   1.3007   1.4017   1.6435
     1.8705   1.9190   2.0799   2.4743   4.2130   4.6240   4.8489   5.0864
     5.5846   6.0443   6.1250   6.1973   6.5200   6.6472   6.7244   7.0300
     7.1001   7.2372   7.2677   7.4924   8.0161   8.0867   8.1294   8.2900
     8.3815   8.3857   8.6024   8.8366   9.0012  10.1106  11.7040  13.2017
    13.8672  14.2610  14.8514  15.5207  15.5990  15.8215  16.0700  16.0918

          k = 0.2500 0.2450 0.0820 ( 17418 PWs)   bands (ev):

   -31.3179 -16.1716 -16.1548 -11.5787 -11.5570 -11.5557  -7.7766  -7.6879
    -7.4792  -7.3429  -7.2065  -7.0554  -6.9756  -1.6596  -1.6365  -1.4944
    -1.4447  -1.1560  -1.1326   0.2360   0.9893   1.3008   1.4027   1.6437
     1.8758   1.9168   2.0796   2.4697   4.2592   4.5975   4.6775   5.3132
     5.5788   6.0453   6.1114   6.2063   6.2754   6.7151   6.8482   7.0495
     7.0817   7.2283   7.3372   7.4941   8.0019   8.0081   8.1603   8.3100
     8.3479   8.3857   8.5828   8.8170   9.0098  10.1422  11.7040  13.2201
    13.8455  14.2792  14.9358  15.4527  15.5708  15.7152  15.8393  15.9811

          k = 0.2500 0.2450-0.1640 ( 17420 PWs)   bands (ev):

   -31.3178 -16.1719 -16.1546 -11.5787 -11.5571 -11.5557  -7.7753  -7.6912
    -7.4740  -7.3414  -7.2143  -7.0524  -6.9756  -1.6568  -1.6396  -1.4905
    -1.4477  -1.1599  -1.1293   0.2360   0.9892   1.3009   1.4038   1.6439
     1.8819   1.9139   2.0793   2.4650   4.3594   4.4513   4.6441   5.5226
     5.5536   6.0317   6.0476   6.1576   6.2162   6.7200   6.9308   7.0503
     7.0793   7.2411   7.4117   7.4956   7.9233   7.9918   8.1757   8.3125
     8.3347   8.3803   8.5674   8.7979   9.0175  10.1723  11.7040  13.2399
    13.8223  14.2983  15.0952  15.3176  15.4696  15.6405  15.7639  15.9238

          k = 0.2500-0.4900 0.0000 ( 17414 PWs)   bands (ev):

   -31.3132 -16.1280 -16.1126 -11.7725 -11.5608 -11.4624  -7.6380  -7.4793
    -7.3437  -7.2365  -7.2206  -7.1178  -7.1132  -1.6687  -1.6259  -1.5721
    -1.5702  -1.3996  -1.3825  -0.1443   0.9335   1.2397   1.3941   1.5940
     1.7988   1.9002   2.1037   2.2905   3.6640   3.9558   4.6618   5.1132
     5.3241   5.8984   6.1112   6.1863   6.5367   6.8742   6.9342   6.9967
     7.0155   7.3839   7.6478   7.8849   8.0979   8.1677   8.2759   8.3883
     8.5247   8.6451   8.7426   8.9025   8.9878  10.8154  12.1248  13.0054
    13.7106  14.4505  15.1722  15.8325  16.0424  16.1606  16.3284  16.4001

          k = 0.2500-0.4900 0.0820 ( 17414 PWs)   bands (ev):

   -31.3132 -16.1281 -16.1126 -11.7725 -11.5608 -11.4624  -7.6471  -7.4525
    -7.3432  -7.2685  -7.2210  -7.1132  -7.1035  -1.6673  -1.6274  -1.5760
    -1.5664  -1.4058  -1.3764  -0.1443   0.9329   1.2396   1.3947   1.5948
     1.8018   1.8991   2.1033   2.2890   3.7030   3.9580   4.4375   5.3221
     5.3962   5.9111   6.1060   6.1749   6.5318   6.6612   6.9897   7.0080
     7.0103   7.5008   7.6484   7.8758   8.0092   8.2029   8.2690   8.3634
     8.5389   8.6402   8.7604   8.9046   8.9681  10.8610  12.1261  13.0208
    13.6775  14.5509  15.1982  15.4996  15.9421  16.0853  16.3884  16.4485

          k = 0.2500-0.4900-0.1640 ( 17432 PWs)   bands (ev):

   -31.3132 -16.1281 -16.1126 -11.7725 -11.5609 -11.4624  -7.6548  -7.4190
    -7.3427  -7.3052  -7.2214  -7.1132  -7.0926  -1.6658  -1.6290  -1.5812
    -1.5604  -1.4124  -1.3707  -0.1442   0.9323   1.2395   1.3954   1.5957
     1.8049   1.8981   2.1029   2.2875   3.7538   3.9636   4.2733   5.3202
     5.6538   5.9243   6.0823   6.1497   6.5001   6.5261   6.9835   7.0045
     7.0264   7.6427   7.6567   7.8687   7.8748   8.2405   8.2645   8.3350
     8.5501   8.6354   8.7810   8.9067   8.9449  10.9060  12.1275  13.0378
    13.6424  14.7248  15.1600  15.2275  15.9023  16.0177  16.4383  16.4768

          k =-0.5000 0.0000 0.0000 ( 17502 PWs)   bands (ev):

   -31.3170 -16.1529 -16.1406 -11.8248 -11.5281 -11.3101  -8.0721  -7.7393
    -7.6054  -7.3260  -7.1436  -7.0458  -6.9161  -1.6837  -1.4064  -1.2664
    -1.1852  -1.1005  -1.0830  -0.0668   0.9767   1.2920   1.4946   1.5380
     1.9574   1.9942   2.0671   2.4352   4.5176   5.0860   5.6073   5.7359
     5.7834   5.8285   6.1369   6.1496   6.5413   6.8155   6.8298   6.8594
     7.0445   7.0670   7.0836   7.1899   7.5229   7.5350   7.8838   8.0377
     8.0407   8.0543   8.2910   8.5337   8.6599   8.8237  10.9237  13.6043
    14.6035  14.6905  15.3952  15.8317  15.9111  16.0114  16.1335  16.2347

          k =-0.5000 0.0000 0.0820 ( 17452 PWs)   bands (ev):

   -31.3170 -16.1530 -16.1406 -11.8248 -11.5281 -11.3101  -8.0785  -7.7146
    -7.6053  -7.3714  -7.1091  -7.0459  -6.9236  -1.6745  -1.4166  -1.2667
    -1.1849  -1.1015  -1.0820  -0.0668   0.9766   1.2921   1.4951   1.5380
     1.9640   1.9937   2.0671   2.4272   4.5227   5.0624   5.6185   5.7168
     5.8095   5.8138   6.1674   6.2353   6.5296   6.7510   6.7534   6.8277
     7.0226   7.0862   7.1427   7.2630   7.3936   7.6681   7.7752   8.0403
     8.0618   8.1333   8.2852   8.5114   8.6049   8.8615  10.9220  13.6316
    14.5623  14.6906  15.4109  15.7468  15.8789  15.9669  16.1590  16.1693

          k =-0.5000 0.0000-0.1640 ( 17456 PWs)   bands (ev):

   -31.3171 -16.1531 -16.1406 -11.8248 -11.5281 -11.3101  -8.0845  -7.6863
    -7.6053  -7.4137  -7.0801  -7.0461  -6.9327  -1.6645  -1.4276  -1.2669
    -1.1846  -1.1023  -1.0812  -0.0668   0.9766   1.2921   1.4956   1.5380
     1.9709   1.9932   2.0671   2.4190   4.5281   5.0399   5.6356   5.6924
     5.8026   5.8343   6.1857   6.4441   6.5111   6.5169   6.7097   6.8257
     7.0564   7.0888   7.1567   7.3031   7.4953   7.5470   7.7358   8.0400
     8.0697   8.2504   8.2790   8.4945   8.5221   8.8929  10.9204  13.6618
    14.5166  14.6907  15.4279  15.6620  15.8421  15.9548  16.1186  16.2134

          k =-0.5000 0.2450 0.0000 ( 17418 PWs)   bands (ev):

   -31.3119 -16.1167 -16.1044 -11.8079 -11.5470 -11.4487  -7.8384  -7.5586
    -7.3147  -7.2227  -7.1993  -7.0528  -6.9626  -1.6953  -1.6550  -1.5829
    -1.5782  -1.5039  -1.4023  -0.2216   0.9127   1.2199   1.4559   1.5385
     1.8195   1.9708   2.0346   2.3123   3.7655   4.5738   4.6485   5.1488
     5.5819   6.0289   6.1059   6.1651   6.5888   6.7665   6.9904   7.0543
     7.1930   7.4028   7.4302   7.9711   8.0363   8.1853   8.2018   8.2956
     8.3966   8.5247   8.6030   8.6818   8.8502  10.1379  12.0384  12.8022
    13.6117  14.8803  15.6146  15.7807  15.9186  15.9512  16.1577  16.5487

          k =-0.5000 0.2450 0.0820 ( 17406 PWs)   bands (ev):

   -31.3119 -16.1168 -16.1043 -11.8079 -11.5470 -11.4487  -7.8440  -7.5386
    -7.3147  -7.2529  -7.1993  -7.0313  -6.9684  -1.6891  -1.6556  -1.5875
    -1.5732  -1.5031  -1.4100  -0.2216   0.9136   1.2193   1.4563   1.5392
     1.8211   1.9696   2.0343   2.3120   3.8193   4.3810   4.6485   5.3502
     5.5879   6.0603   6.1057   6.1704   6.5613   6.6196   6.9864   7.0275
     7.2923   7.4542   7.4570   7.8778   8.0435   8.1350   8.2552   8.3161
     8.3858   8.5030   8.6024   8.6658   8.8518  10.1674  12.0397  12.8291
    13.6284  14.8358  15.5743  15.6390  15.9558  16.0000  16.0682  16.6634

          k =-0.5000 0.2450-0.1640 ( 17416 PWs)   bands (ev):

   -31.3119 -16.1169 -16.1042 -11.8079 -11.5471 -11.4487  -7.8493  -7.5161
    -7.3146  -7.2827  -7.1993  -7.0083  -6.9790  -1.6824  -1.6562  -1.5916
    -1.5688  -1.5022  -1.4182  -0.2216   0.9144   1.2186   1.4567   1.5399
     1.8227   1.9683   2.0340   2.3117   3.9070   4.2008   4.6486   5.4958
     5.6201   6.0987   6.1037   6.1832   6.4757   6.5272   6.9828   7.0057
     7.3312   7.4797   7.6271   7.7002   8.0474   8.1130   8.2916   8.3299
     8.3714   8.4813   8.6020   8.6492   8.8533  10.1958  12.0409  12.8571
    13.6455  14.7812  15.5414  15.6242  15.9114  15.9388  16.0506  16.7590

          k =-0.5000-0.4900 0.0000 ( 17452 PWs)   bands (ev):

   -31.3078 -16.0807 -16.0685 -11.7916 -11.7537 -11.3655  -7.4106  -7.3565
    -7.3436  -7.3349  -7.1299  -6.9966  -6.8726  -2.0231  -2.0207  -1.9923
    -1.7874  -1.6790  -1.4142  -0.4377   0.8564   1.1753   1.3802   1.5446
     1.6035   1.8795   2.0414   2.1111   3.2128   3.8976   4.2932   5.1469
     5.4444   5.7841   6.0694   6.2666   6.3676   7.1984   7.2146   7.4176
     7.4450   7.4890   7.9273   8.0244   8.0508   8.4163   8.4600   8.6883
     8.7134   9.0203   9.0273   9.1183   9.8378  10.6552  12.1027  12.9715
    13.1577  14.9418  15.0211  15.4706  15.4978  15.6904  15.9306  16.6926

          k =-0.5000-0.4900 0.0820 ( 17460 PWs)   bands (ev):

   -31.3078 -16.0808 -16.0683 -11.7916 -11.7537 -11.3655  -7.4106  -7.3734
    -7.3341  -7.3252  -7.1308  -6.9966  -6.8741  -2.0242  -2.0190  -1.9941
    -1.7859  -1.6647  -1.4309  -0.4377   0.8608   1.1730   1.3809   1.5450
     1.6026   1.8783   2.0410   2.1116   3.2772   3.8498   4.1376   5.3834
     5.4432   5.8194   6.0717   6.2650   6.3215   7.0630   7.2030   7.4379
     7.4561   7.4880   7.9420   7.9478   8.1060   8.4171   8.4603   8.6944
     8.7017   9.0206   9.0268   9.1149   9.8378  10.7415  12.1119  12.9663
    13.0999  15.0362  15.0542  15.3169  15.5034  15.9119  16.0096  16.2316

          k =-0.5000-0.4900-0.1640 ( 17448 PWs)   bands (ev):

   -31.3078 -16.0810 -16.0682 -11.7917 -11.7538 -11.3655  -7.4106  -7.3821
    -7.3333  -7.3151  -7.1317  -6.9966  -6.8757  -2.0254  -2.0170  -1.9962
    -1.7845  -1.6480  -1.4500  -0.4377   0.8653   1.1707   1.3817   1.5455
     1.6016   1.8772   2.0405   2.1120   3.3745   3.7378   4.0527   5.4419
     5.6041   5.8621   6.0771   6.2633   6.2683   6.8923   7.2072   7.4606
     7.4614   7.4870   7.9007   7.9571   8.1294   8.4180   8.4605   8.6893
     8.7005   9.0209   9.0263   9.1117   9.8378  10.8291  12.1211  12.9536
    13.0470  15.0919  15.1796  15.2320  15.5384  15.8854  15.8904  16.3430

     the Fermi energy is     9.1008 ev

!    total energy              =   -1891.26026757 Ry
     estimated scf accuracy    <          9.6E-10 Ry
     smearing contrib. (-TS)   =       0.00574806 Ry
     internal energy E=F+TS    =   -1891.26601563 Ry

     The total energy is F=E-TS. E is the sum of the following terms:
     one-electron contribution =    -261.85084299 Ry
     hartree contribution      =     227.00919346 Ry
     xc contribution           =    -248.57253264 Ry
     ewald contribution        =    -521.89411709 Ry
     Hubbard energy            =       0.18119579 Ry
     one-center paw contrib.   =   -1086.13891216 Ry

     total magnetization       =    -0.00 Bohr mag/cell
     absolute magnetization    =     1.83 Bohr mag/cell

     convergence has been achieved in  42 iterations

     negative rho (up, down):  2.247E-02 2.247E-02

     Forces acting on atoms (cartesian axes, Ry/au):

     atom    1 type  1   force =     0.00000000    0.00000000   -0.00000050
     atom    2 type  2   force =     0.00000000    0.00000000    0.00426154
     atom    3 type  2   force =     0.00000000    0.00000000   -0.00426086
     atom    4 type  3   force =     0.00000000    0.00000000    0.00000069
     atom    5 type  4   force =     0.00000000    0.00000000   -0.00410298
     atom    6 type  5   force =     0.00000000    0.00000000    0.00410280
     atom    7 type  6   force =     0.00000000    0.00000000    0.00662982
     atom    8 type  6   force =     0.00000000    0.00000000   -0.00663194
     atom    9 type  6   force =     0.00000000    0.00000000    0.00767822
     atom   10 type  6   force =     0.00000000    0.00000000   -0.00767752
     atom   11 type  6   force =     0.00000000    0.00000000   -0.00000003
     atom   12 type  6   force =     0.00000000    0.00000000   -0.01946425
     atom   13 type  6   force =     0.00000000    0.00000000    0.01946500

     Total force =     0.032149     Total SCF correction =     0.000008

     Writing all to output data dir ./YBCO7/YBCO7.save/
 
     init_run     :      8.69s CPU      9.15s WALL (       1 calls)
     electrons    :    918.29s CPU    977.41s WALL (       1 calls)
     forces       :    101.32s CPU    116.04s WALL (       1 calls)

     Called by init_run:
     wfcinit      :      6.53s CPU      6.68s WALL (       1 calls)
     potinit      :      0.53s CPU      0.55s WALL (       1 calls)
     hinit0       :      0.76s CPU      0.79s WALL (       1 calls)

     Called by electrons:
     c_bands      :    651.17s CPU    684.92s WALL (      42 calls)
     sum_band     :    193.87s CPU    210.01s WALL (      42 calls)
     v_of_rho     :      6.27s CPU      6.61s WALL (      43 calls)
     newd         :     44.23s CPU     53.23s WALL (      43 calls)
     PAW_pot      :     21.90s CPU     21.92s WALL (      43 calls)
     mix_rho      :      1.46s CPU      1.53s WALL (      42 calls)

     Called by c_bands:
     init_us_2    :     13.64s CPU     13.88s WALL (    4752 calls)
     init_us_2:cp :     13.61s CPU     13.86s WALL (    4752 calls)
     cegterg      :    587.20s CPU    619.54s WALL (    2268 calls)

     Called by *egterg:
     cdiaghg      :     19.45s CPU     19.67s WALL (    8165 calls)
     h_psi        :    384.17s CPU    407.60s WALL (    8219 calls)
     s_psi        :     46.39s CPU     46.70s WALL (    8381 calls)
     g_psi        :      1.71s CPU      1.72s WALL (    5897 calls)

     Called by h_psi:
     h_psi:calbec :     47.03s CPU     49.87s WALL (    8219 calls)
     vloc_psi     :    272.84s CPU    290.99s WALL (    8219 calls)
     add_vuspsi   :     43.82s CPU     44.05s WALL (    8219 calls)
     vhpsi        :     16.56s CPU     18.72s WALL (    8219 calls)

     General routines
     calbec       :    113.44s CPU    124.59s WALL (   38254 calls)
     fft          :      3.11s CPU      3.49s WALL (    1088 calls)
     ffts         :      0.13s CPU      0.13s WALL (     170 calls)
     fftw         :    263.35s CPU    281.12s WALL (  761260 calls)
     interpolate  :      0.37s CPU      0.40s WALL (      86 calls)
     davcio       :      0.01s CPU      0.02s WALL (      54 calls)
 
     Parallel routines

     Hubbard U routines
     new_ns       :      3.96s CPU      4.17s WALL (      42 calls)
     vhpsi        :     16.56s CPU     18.72s WALL (    8219 calls)
     force_hub    :     94.13s CPU    107.94s WALL (       1 calls)
                                        0.00s GPU  (       1 calls)
 
     PWSCF        :  17m 8.88s CPU  18m23.85s WALL

 
   This run was terminated on:  23:13:30  23Dec2023            

=------------------------------------------------------------------------------=
   JOB DONE.
=------------------------------------------------------------------------------=
