
     Program PWSCF v.7.2 starts on  2Jan2024 at  0:56:52 

     This program is part of the open-source Quantum ESPRESSO suite
     for quantum simulation of materials; please cite
         "P. Giannozzi et al., J. Phys.:Condens. Matter 21 395502 (2009);
         "P. Giannozzi et al., J. Phys.:Condens. Matter 29 465901 (2017);
         "P. Giannozzi et al., J. Chem. Phys. 152 154105 (2020);
          URL http://www.quantum-espresso.org", 
     in publications or presentations arising from this work. More details at
     http://www.quantum-espresso.org/quote

     Parallel version (MPI), running on     4 processors

     MPI processes distributed on     1 nodes
     8345 MiB available memory on the printing compute node when the environment starts
 
     Waiting for input...
     Reading input from standard input
Warning: card &IONS ignored
Warning: card ION_DYNAMICS = 'BFGS' ignored
Warning: card / ignored
Warning: card &CELL ignored
Warning: card / ignored

     Current dimensions of program PWSCF are:
     Max number of different atomic species (ntypx) = 10
     Max number of k-points (npk) =  40000
     Max angular momentum in pseudopotentials (lmaxx) =  4

     Atomic positions and unit cell read from directory:
     ./YBCO6/YBCO6.save/
 
     Found identity + (  0.5000  0.5000  0.0000) symmetry
     This is a supercell, fractional translations are disabled
 
     R & G space division:  proc/nbgrp/npool/nimage =       4
     Subspace diagonalization in iterative solution of the eigenvalue problem:
     one sub-group per band group will be used
     custom distributed-memory algorithm (size of sub-group:  2*  2 procs)

 
     Parallelization info
     --------------------
     sticks:   dense  smooth     PW     G-vecs:    dense   smooth      PW
     Min        2210     984    258               238514    70654    9434
     Max        2211     985    259               238519    70656    9439
     Sum        8841    3937   1033               954065   282619   37743
 
     Using Slab Decomposition
 


     bravais-lattice index     =            6
     lattice parameter (alat)  =      14.3459  a.u.
     unit-cell volume          =    4502.1906 (a.u.)^3
     number of atoms/cell      =           48
     number of atomic types    =            6
     number of electrons       =       496.00
     number of Kohn-Sham states=          298
     kinetic-energy cutoff     =      60.0000  Ry
     charge density cutoff     =     540.0000  Ry
     Exchange-correlation= SLA  PZ   NOGX NOGC
                           (   1   1   0   0   0   0   0)
     Hubbard projectors: ortho-atomic
     Hubbard parameters of DFT+U (Dudarev formulation) in eV:
     U(Cu1-3d) =  2.5000
     U(Cu2-3d) =  2.5000

     Internal variables: lda_plus_u = T, lda_plus_u_kind = 0

     celldm(1)=  14.345919  celldm(2)=   0.000000  celldm(3)=   1.524891
     celldm(4)=   0.000000  celldm(5)=   0.000000  celldm(6)=   0.000000

     crystal axes: (cart. coord. in units of alat)
               a(1) = (   1.000000   0.000000   0.000000 )  
               a(2) = (   0.000000   1.000000   0.000000 )  
               a(3) = (   0.000000   0.000000   1.524891 )  

     reciprocal axes: (cart. coord. in units 2 pi/alat)
               b(1) = (  1.000000  0.000000  0.000000 )  
               b(2) = (  0.000000  1.000000  0.000000 )  
               b(3) = (  0.000000  0.000000  0.655785 )  


     PseudoPot. # 1 for Y  read from file:
     ~/q-e/pseudo/gbrv_lda/y_lda_v1.4.uspp.F.UPF
     MD5 check sum: Not computed, couldn't open file
     Pseudo is Ultrasoft + core correction, Zval = 11.0
     Generated by new atomic code, or converted to UPF format
     Using radial grid of  885 points,  6 beta functions with: 
                l(1) =   0
                l(2) =   0
                l(3) =   1
                l(4) =   1
                l(5) =   2
                l(6) =   2
     Q(r) pseudized with  8 coefficients,  rinner =    1.200   1.200   1.200
                                                       1.200   1.200

     PseudoPot. # 2 for Ba read from file:
     ~/q-e/pseudo/gbrv_lda/ba_lda_v1.uspp.F.UPF
     MD5 check sum: Not computed, couldn't open file
     Pseudo is Ultrasoft + core correction, Zval = 10.0
     Generated by new atomic code, or converted to UPF format
     Using radial grid of  907 points,  7 beta functions with: 
                l(1) =   0
                l(2) =   0
                l(3) =   1
                l(4) =   1
                l(5) =   2
                l(6) =   2
                l(7) =   3
     Q(r) pseudized with  6 coefficients,  rinner =    1.700   1.700   1.700
                                                       1.700   1.700   1.700
                                                       1.700

     PseudoPot. # 3 for Cu read from file:
     ~/q-e/pseudo/gbrv_lda/cu_lda_v1.2.uspp.F.UPF
     MD5 check sum: Not computed, couldn't open file
     Pseudo is Ultrasoft + core correction, Zval = 19.0
     Generated by new atomic code, or converted to UPF format
     Using radial grid of  867 points,  6 beta functions with: 
                l(1) =   0
                l(2) =   0
                l(3) =   1
                l(4) =   1
                l(5) =   2
                l(6) =   2
     Q(r) pseudized with  8 coefficients,  rinner =    1.150   1.150   1.150
                                                       1.150   1.150

     PseudoPot. # 4 for Cu read from file:
     ~/q-e/pseudo/gbrv_lda/cu_lda_v1.2.uspp.F.UPF
     MD5 check sum: Not computed, couldn't open file
     Pseudo is Ultrasoft + core correction, Zval = 19.0
     Generated by new atomic code, or converted to UPF format
     Using radial grid of  867 points,  6 beta functions with: 
                l(1) =   0
                l(2) =   0
                l(3) =   1
                l(4) =   1
                l(5) =   2
                l(6) =   2
     Q(r) pseudized with  8 coefficients,  rinner =    1.150   1.150   1.150
                                                       1.150   1.150

     PseudoPot. # 5 for Cu read from file:
     ~/q-e/pseudo/gbrv_lda/cu_lda_v1.2.uspp.F.UPF
     MD5 check sum: Not computed, couldn't open file
     Pseudo is Ultrasoft + core correction, Zval = 19.0
     Generated by new atomic code, or converted to UPF format
     Using radial grid of  867 points,  6 beta functions with: 
                l(1) =   0
                l(2) =   0
                l(3) =   1
                l(4) =   1
                l(5) =   2
                l(6) =   2
     Q(r) pseudized with  8 coefficients,  rinner =    1.150   1.150   1.150
                                                       1.150   1.150

     PseudoPot. # 6 for O  read from file:
     ~/q-e/pseudo/gbrv_lda/o_lda_v1.2.uspp.F.UPF
     MD5 check sum: Not computed, couldn't open file
     Pseudo is Ultrasoft + core correction, Zval =  6.0
     Generated by new atomic code, or converted to UPF format
     Using radial grid of  737 points,  5 beta functions with: 
                l(1) =   0
                l(2) =   0
                l(3) =   1
                l(4) =   1
                l(5) =   2
     Q(r) pseudized with  8 coefficients,  rinner =    0.900   0.900   0.900
                                                       0.900   0.900

     atomic species   valence    mass     pseudopotential
     Y                11.00    88.90584     Y ( 1.00)
     Ba               10.00   137.32700     Ba( 1.00)
     Cu               19.00    63.54600     Cu( 1.00)
     Cu1              19.00    63.54600     Cu( 1.00)
     Cu2              19.00    63.54600     Cu( 1.00)
     O                 6.00    15.99900     O ( 1.00)

     Starting magnetic structure 
     atomic species   magnetization
     Y               0.000
     Ba              0.000
     Cu              0.000
     Cu1             0.100
     Cu2            -0.100
     O               0.000

      8 Sym. Ops. (no inversion) found


                                    s                        frac. trans.

      isym =  1     identity                                     

 cryst.   s( 1) = (     1          0          0      )
                  (     0          1          0      )
                  (     0          0          1      )

 cart.    s( 1) = (  1.0000000  0.0000000  0.0000000 )
                  (  0.0000000  1.0000000  0.0000000 )
                  (  0.0000000  0.0000000  1.0000000 )


      isym =  2     180 deg rotation - cart. axis [0,0,1]        

 cryst.   s( 2) = (    -1          0          0      )
                  (     0         -1          0      )
                  (     0          0          1      )

 cart.    s( 2) = ( -1.0000000  0.0000000  0.0000000 )
                  (  0.0000000 -1.0000000  0.0000000 )
                  (  0.0000000  0.0000000  1.0000000 )


      isym =  3      90 deg rotation - cart. axis [0,0,-1]       

 cryst.   s( 3) = (     0         -1          0      )
                  (     1          0          0      )
                  (     0          0          1      )

 cart.    s( 3) = (  0.0000000  1.0000000  0.0000000 )
                  ( -1.0000000  0.0000000  0.0000000 )
                  (  0.0000000  0.0000000  1.0000000 )


      isym =  4      90 deg rotation - cart. axis [0,0,1]        

 cryst.   s( 4) = (     0          1          0      )
                  (    -1          0          0      )
                  (     0          0          1      )

 cart.    s( 4) = (  0.0000000 -1.0000000  0.0000000 )
                  (  1.0000000  0.0000000  0.0000000 )
                  (  0.0000000  0.0000000  1.0000000 )


      isym =  5     inv. 180 deg rotation - cart. axis [0,1,0]   

 cryst.   s( 5) = (     1          0          0      )
                  (     0         -1          0      )
                  (     0          0          1      )

 cart.    s( 5) = (  1.0000000  0.0000000  0.0000000 )
                  (  0.0000000 -1.0000000  0.0000000 )
                  (  0.0000000  0.0000000  1.0000000 )


      isym =  6     inv. 180 deg rotation - cart. axis [1,0,0]   

 cryst.   s( 6) = (    -1          0          0      )
                  (     0          1          0      )
                  (     0          0          1      )

 cart.    s( 6) = ( -1.0000000  0.0000000  0.0000000 )
                  (  0.0000000  1.0000000  0.0000000 )
                  (  0.0000000  0.0000000  1.0000000 )


      isym =  7     inv. 180 deg rotation - cart. axis [1,1,0]   

 cryst.   s( 7) = (     0         -1          0      )
                  (    -1          0          0      )
                  (     0          0          1      )

 cart.    s( 7) = (  0.0000000 -1.0000000  0.0000000 )
                  ( -1.0000000  0.0000000  0.0000000 )
                  (  0.0000000  0.0000000  1.0000000 )


      isym =  8     inv. 180 deg rotation - cart. axis [1,-1,0]  

 cryst.   s( 8) = (     0          1          0      )
                  (     1          0          0      )
                  (     0          0          1      )

 cart.    s( 8) = (  0.0000000  1.0000000  0.0000000 )
                  (  1.0000000  0.0000000  0.0000000 )
                  (  0.0000000  0.0000000  1.0000000 )


     point group C_4v (4mm) 
     there are  5 classes
     the character table:

       E     2C4   C2    2s_v  2s_d 
A_1    1.00  1.00  1.00  1.00  1.00
A_2    1.00  1.00  1.00 -1.00 -1.00
B_1    1.00 -1.00  1.00  1.00 -1.00
B_2    1.00 -1.00  1.00 -1.00  1.00
E      2.00  0.00 -2.00  0.00  0.00

     the symmetry operations in each class and the name of the first element:

     E        1
          identity                                               
     2C4      3    4
           90 deg rotation - cart. axis [0,0,-1]                 
     C2       2
          180 deg rotation - cart. axis [0,0,1]                  
     2s_v     5    6
          inv. 180 deg rotation - cart. axis [0,1,0]             
     2s_d     7    8
          inv. 180 deg rotation - cart. axis [1,1,0]             

   Cartesian axes

     site n.     atom                  positions (alat units)
         1        Y      tau(   1) = (   0.2500000   0.2500000   0.7624455  )
         2        Y      tau(   2) = (   0.2500000   0.7500000   0.7624455  )
         3        Y      tau(   3) = (   0.7500000   0.2500000   0.7624455  )
         4        Y      tau(   4) = (   0.7500000   0.7500000   0.7624455  )
         5        Ba     tau(   5) = (   0.2500000   0.2500000   0.2966571  )
         6        Ba     tau(   6) = (   0.2500000   0.2500000   1.2282339  )
         7        Ba     tau(   7) = (   0.2500000   0.7500000   0.2966571  )
         8        Ba     tau(   8) = (   0.2500000   0.7500000   1.2282339  )
         9        Ba     tau(   9) = (   0.7500000   0.2500000   0.2966571  )
        10        Ba     tau(  10) = (   0.7500000   0.2500000   1.2282339  )
        11        Ba     tau(  11) = (   0.7500000   0.7500000   0.2966571  )
        12        Ba     tau(  12) = (   0.7500000   0.7500000   1.2282339  )
        13        Cu     tau(  13) = (   0.0000000   0.0000000   0.0000000  )
        14        Cu1    tau(  14) = (   0.0000000   0.0000000   0.5526369  )
        15        Cu2    tau(  15) = (   0.0000000   0.0000000   0.9722541  )
        16        Cu     tau(  16) = (   0.0000000   0.5000000   0.0000000  )
        17        Cu2    tau(  17) = (   0.0000000   0.5000000   0.5526369  )
        18        Cu1    tau(  18) = (   0.0000000   0.5000000   0.9722541  )
        19        Cu     tau(  19) = (   0.5000000   0.0000000   0.0000000  )
        20        Cu2    tau(  20) = (   0.5000000   0.0000000   0.5526369  )
        21        Cu1    tau(  21) = (   0.5000000   0.0000000   0.9722541  )
        22        Cu     tau(  22) = (   0.5000000   0.5000000   0.0000000  )
        23        Cu1    tau(  23) = (   0.5000000   0.5000000   0.5526369  )
        24        Cu2    tau(  24) = (   0.5000000   0.5000000   0.9722541  )
        25        O      tau(  25) = (   0.0000000   0.0000000   0.2314064  )
        26        O      tau(  26) = (   0.0000000   0.0000000   1.2934846  )
        27        O      tau(  27) = (   0.5000000   0.0000000   0.2314064  )
        28        O      tau(  28) = (   0.5000000   0.0000000   1.2934846  )
        29        O      tau(  29) = (   0.0000000   0.5000000   0.2314064  )
        30        O      tau(  30) = (   0.0000000   0.5000000   1.2934846  )
        31        O      tau(  31) = (   0.5000000   0.5000000   0.2314064  )
        32        O      tau(  32) = (   0.5000000   0.5000000   1.2934846  )
        33        O      tau(  33) = (   0.2500000   0.0000000   0.5769788  )
        34        O      tau(  34) = (   0.2500000   0.0000000   0.9479122  )
        35        O      tau(  35) = (   0.2500000   0.5000000   0.5769788  )
        36        O      tau(  36) = (   0.2500000   0.5000000   0.9479122  )
        37        O      tau(  37) = (   0.7500000   0.0000000   0.5769788  )
        38        O      tau(  38) = (   0.7500000   0.0000000   0.9479122  )
        39        O      tau(  39) = (   0.7500000   0.5000000   0.5769788  )
        40        O      tau(  40) = (   0.7500000   0.5000000   0.9479122  )
        41        O      tau(  41) = (   0.0000000   0.2500000   0.5769788  )
        42        O      tau(  42) = (   0.0000000   0.2500000   0.9479122  )
        43        O      tau(  43) = (   0.5000000   0.2500000   0.5769788  )
        44        O      tau(  44) = (   0.5000000   0.2500000   0.9479122  )
        45        O      tau(  45) = (   0.0000000   0.7500000   0.5769788  )
        46        O      tau(  46) = (   0.0000000   0.7500000   0.9479122  )
        47        O      tau(  47) = (   0.5000000   0.7500000   0.5769788  )
        48        O      tau(  48) = (   0.5000000   0.7500000   0.9479122  )

   Crystallographic axes

     site n.     atom                  positions (cryst. coord.)
         1        Y      tau(   1) = (  0.2500000  0.2500000  0.5000000  )
         2        Y      tau(   2) = (  0.2500000  0.7500000  0.5000000  )
         3        Y      tau(   3) = (  0.7500000  0.2500000  0.5000000  )
         4        Y      tau(   4) = (  0.7500000  0.7500000  0.5000000  )
         5        Ba     tau(   5) = (  0.2500000  0.2500000  0.1945431  )
         6        Ba     tau(   6) = (  0.2500000  0.2500000  0.8054569  )
         7        Ba     tau(   7) = (  0.2500000  0.7500000  0.1945431  )
         8        Ba     tau(   8) = (  0.2500000  0.7500000  0.8054569  )
         9        Ba     tau(   9) = (  0.7500000  0.2500000  0.1945431  )
        10        Ba     tau(  10) = (  0.7500000  0.2500000  0.8054569  )
        11        Ba     tau(  11) = (  0.7500000  0.7500000  0.1945431  )
        12        Ba     tau(  12) = (  0.7500000  0.7500000  0.8054569  )
        13        Cu     tau(  13) = (  0.0000000  0.0000000  0.0000000  )
        14        Cu1    tau(  14) = (  0.0000000  0.0000000  0.3624108  )
        15        Cu2    tau(  15) = (  0.0000000  0.0000000  0.6375892  )
        16        Cu     tau(  16) = (  0.0000000  0.5000000  0.0000000  )
        17        Cu2    tau(  17) = (  0.0000000  0.5000000  0.3624108  )
        18        Cu1    tau(  18) = (  0.0000000  0.5000000  0.6375892  )
        19        Cu     tau(  19) = (  0.5000000  0.0000000  0.0000000  )
        20        Cu2    tau(  20) = (  0.5000000  0.0000000  0.3624108  )
        21        Cu1    tau(  21) = (  0.5000000  0.0000000  0.6375892  )
        22        Cu     tau(  22) = (  0.5000000  0.5000000  0.0000000  )
        23        Cu1    tau(  23) = (  0.5000000  0.5000000  0.3624108  )
        24        Cu2    tau(  24) = (  0.5000000  0.5000000  0.6375892  )
        25        O      tau(  25) = (  0.0000000  0.0000000  0.1517528  )
        26        O      tau(  26) = (  0.0000000  0.0000000  0.8482472  )
        27        O      tau(  27) = (  0.5000000  0.0000000  0.1517528  )
        28        O      tau(  28) = (  0.5000000  0.0000000  0.8482472  )
        29        O      tau(  29) = (  0.0000000  0.5000000  0.1517528  )
        30        O      tau(  30) = (  0.0000000  0.5000000  0.8482472  )
        31        O      tau(  31) = (  0.5000000  0.5000000  0.1517528  )
        32        O      tau(  32) = (  0.5000000  0.5000000  0.8482472  )
        33        O      tau(  33) = (  0.2500000  0.0000000  0.3783738  )
        34        O      tau(  34) = (  0.2500000  0.0000000  0.6216262  )
        35        O      tau(  35) = (  0.2500000  0.5000000  0.3783738  )
        36        O      tau(  36) = (  0.2500000  0.5000000  0.6216262  )
        37        O      tau(  37) = (  0.7500000  0.0000000  0.3783738  )
        38        O      tau(  38) = (  0.7500000  0.0000000  0.6216262  )
        39        O      tau(  39) = (  0.7500000  0.5000000  0.3783738  )
        40        O      tau(  40) = (  0.7500000  0.5000000  0.6216262  )
        41        O      tau(  41) = (  0.0000000  0.2500000  0.3783738  )
        42        O      tau(  42) = (  0.0000000  0.2500000  0.6216262  )
        43        O      tau(  43) = (  0.5000000  0.2500000  0.3783738  )
        44        O      tau(  44) = (  0.5000000  0.2500000  0.6216262  )
        45        O      tau(  45) = (  0.0000000  0.7500000  0.3783738  )
        46        O      tau(  46) = (  0.0000000  0.7500000  0.6216262  )
        47        O      tau(  47) = (  0.5000000  0.7500000  0.3783738  )
        48        O      tau(  48) = (  0.5000000  0.7500000  0.6216262  )

     number of k points=     1 (tetrahedron method)
                       cart. coord. in units 2pi/alat
        k(    1) = (   0.2500000   0.2500000   0.1639461), wk =   1.0000000

                       cryst. coord.
        k(    1) = (   0.2500000   0.2500000   0.2500000), wk =   1.0000000

     Dense  grid:   954065 G-vectors     FFT dimensions: ( 108, 108, 162)

     Smooth grid:   282619 G-vectors     FFT dimensions: (  72,  72, 108)

     Dynamical RAM for                 wfc:      40.16 MB

     Dynamical RAM for     wfc (w. buffer):      40.16 MB

     Dynamical RAM for             U proj.:       5.39 MB

     Dynamical RAM for  U proj. (w. buff.):       5.39 MB

     Dynamical RAM for           str. fact:      21.84 MB

     Dynamical RAM for           local pot:       0.00 MB

     Dynamical RAM for          nlocal pot:     107.82 MB

     Dynamical RAM for                qrad:      20.88 MB

     Dynamical RAM for          rho,v,vnew:      43.73 MB

     Dynamical RAM for           G-vectors:      14.19 MB

     Dynamical RAM for          h,s,v(r/c):       4.07 MB

     Dynamical RAM for          <psi|beta>:       3.64 MB

     Dynamical RAM for                 psi:      80.33 MB

     Dynamical RAM for                hpsi:      80.33 MB

     Dynamical RAM for                spsi:      80.33 MB

     Dynamical RAM for      wfcinit/wfcrot:     113.79 MB

     Dynamical RAM for           addusdens:    1372.08 MB

     Estimated static dynamical RAM per process >     301.38 MB

     Estimated max dynamical RAM per process >       1.63 GB

     Estimated total dynamical RAM >       6.54 GB

     Check: negative core charge=   -0.000002
     Generating pointlists ...
     new r_m :   0.1284 (alat units)  1.8421 (a.u.) for type    1
     new r_m :   0.1483 (alat units)  2.1276 (a.u.) for type    2
     new r_m :   0.0955 (alat units)  1.3694 (a.u.) for type    3
     new r_m :   0.1036 (alat units)  1.4864 (a.u.) for type    4
     new r_m :   0.1036 (alat units)  1.4864 (a.u.) for type    5
     new r_m :   0.0955 (alat units)  1.3694 (a.u.) for type    6

     The potential is recalculated from file :
     ./YBCO6/YBCO6.save/charge-density


     negative rho (up, down):  3.570E-01 3.570E-01

     HUBBARD ENERGY =    0.4190  (Ry)

     STARTING HUBBARD OCCUPATIONS:

     =================== HUBBARD OCCUPATIONS ===================
     ------------------------ ATOM   14 ------------------------
     Tr[ns( 14)] (up, down, total) =   4.72212  4.57421  9.29633
     Atomic magnetic moment for atom  14 =   0.14792
     SPIN  1
     eigenvalues:
       0.831  0.952  0.977  0.977  0.985
     eigenvectors (columns):
      -0.000  1.000 -0.000 -0.000  0.000
      -0.000  0.000  0.385  0.923  0.000
      -0.000  0.000  0.923 -0.385  0.000
       1.000  0.000  0.000  0.000 -0.000
       0.000 -0.000 -0.000 -0.000  1.000
     occupation matrix ns (before diag.):
       0.952 -0.000 -0.000  0.000  0.000
      -0.000  0.977 -0.000  0.000  0.000
      -0.000 -0.000  0.977  0.000  0.000
       0.000  0.000  0.000  0.831 -0.000
       0.000  0.000  0.000 -0.000  0.985
     SPIN  2
     eigenvalues:
       0.688  0.949  0.977  0.977  0.984
     eigenvectors (columns):
      -0.000  1.000 -0.000 -0.000  0.000
      -0.000  0.000  0.329  0.944  0.000
      -0.000  0.000  0.944 -0.329  0.000
       1.000  0.000  0.000  0.000 -0.000
       0.000 -0.000 -0.000 -0.000  1.000
     occupation matrix ns (before diag.):
       0.949 -0.000 -0.000  0.000  0.000
      -0.000  0.977 -0.000  0.000  0.000
      -0.000 -0.000  0.977  0.000  0.000
       0.000  0.000  0.000  0.688 -0.000
       0.000  0.000  0.000 -0.000  0.984
     ------------------------ ATOM   15 ------------------------
     Tr[ns( 15)] (up, down, total) =   4.57425  4.72209  9.29634
     Atomic magnetic moment for atom  15 =  -0.14784
     SPIN  1
     eigenvalues:
       0.688  0.949  0.977  0.977  0.984
     eigenvectors (columns):
      -0.000  1.000 -0.000 -0.000  0.000
      -0.000  0.000  0.359  0.934  0.000
      -0.000  0.000  0.934 -0.359  0.000
       1.000  0.000  0.000  0.000 -0.000
       0.000 -0.000 -0.000 -0.000  1.000
     occupation matrix ns (before diag.):
       0.949 -0.000 -0.000  0.000  0.000
      -0.000  0.977 -0.000  0.000  0.000
      -0.000 -0.000  0.977  0.000  0.000
       0.000  0.000  0.000  0.688 -0.000
       0.000  0.000  0.000 -0.000  0.984
     SPIN  2
     eigenvalues:
       0.831  0.952  0.977  0.977  0.985
     eigenvectors (columns):
      -0.000  1.000 -0.000 -0.000  0.000
      -0.000  0.000  0.295  0.956  0.000
      -0.000  0.000  0.956 -0.295  0.000
       1.000  0.000  0.000  0.000 -0.000
       0.000 -0.000 -0.000 -0.000  1.000
     occupation matrix ns (before diag.):
       0.952 -0.000 -0.000  0.000  0.000
      -0.000  0.977 -0.000  0.000  0.000
      -0.000 -0.000  0.977  0.000  0.000
       0.000  0.000  0.000  0.831 -0.000
       0.000  0.000  0.000 -0.000  0.985
     ------------------------ ATOM   17 ------------------------
     Tr[ns( 17)] (up, down, total) =   4.57424  4.72208  9.29633
     Atomic magnetic moment for atom  17 =  -0.14784
     SPIN  1
     eigenvalues:
       0.688  0.949  0.977  0.977  0.984
     eigenvectors (columns):
      -0.000  1.000 -0.000 -0.000  0.000
      -0.000  0.000  0.000  1.000  0.000
      -0.000  0.000  1.000 -0.000  0.000
       1.000  0.000  0.000  0.000 -0.000
       0.000 -0.000 -0.000 -0.000  1.000
     occupation matrix ns (before diag.):
       0.949 -0.000 -0.000  0.000  0.000
      -0.000  0.977 -0.000  0.000  0.000
      -0.000 -0.000  0.977  0.000  0.000
       0.000  0.000  0.000  0.688 -0.000
       0.000  0.000  0.000 -0.000  0.984
     SPIN  2
     eigenvalues:
       0.831  0.952  0.977  0.977  0.985
     eigenvectors (columns):
      -0.000  1.000 -0.000 -0.000  0.000
      -0.000  0.000  0.000  1.000  0.000
      -0.000  0.000  1.000 -0.000  0.000
       1.000  0.000  0.000  0.000 -0.000
       0.000 -0.000 -0.000 -0.000  1.000
     occupation matrix ns (before diag.):
       0.952 -0.000 -0.000  0.000  0.000
      -0.000  0.977 -0.000  0.000  0.000
      -0.000 -0.000  0.977  0.000  0.000
       0.000  0.000  0.000  0.831 -0.000
       0.000  0.000  0.000 -0.000  0.985
     ------------------------ ATOM   18 ------------------------
     Tr[ns( 18)] (up, down, total) =   4.72199  4.57433  9.29632
     Atomic magnetic moment for atom  18 =   0.14766
     SPIN  1
     eigenvalues:
       0.831  0.952  0.977  0.977  0.985
     eigenvectors (columns):
       0.000  1.000 -0.000 -0.000  0.000
      -0.000  0.000  1.000 -0.000  0.000
      -0.000  0.000  0.000  1.000  0.000
       1.000 -0.000  0.000  0.000 -0.000
       0.000 -0.000 -0.000 -0.000  1.000
     occupation matrix ns (before diag.):
       0.952 -0.000 -0.000 -0.000  0.000
      -0.000  0.977 -0.000  0.000  0.000
      -0.000 -0.000  0.977  0.000  0.000
      -0.000  0.000  0.000  0.831 -0.000
       0.000  0.000  0.000 -0.000  0.985
     SPIN  2
     eigenvalues:
       0.688  0.949  0.977  0.977  0.984
     eigenvectors (columns):
       0.000  1.000 -0.000 -0.000  0.000
      -0.000  0.000  1.000 -0.000  0.000
      -0.000  0.000  0.000  1.000  0.000
       1.000 -0.000  0.000  0.000 -0.000
       0.000 -0.000 -0.000 -0.000  1.000
     occupation matrix ns (before diag.):
       0.949 -0.000 -0.000 -0.000  0.000
      -0.000  0.977 -0.000  0.000  0.000
      -0.000 -0.000  0.977  0.000  0.000
      -0.000  0.000  0.000  0.688 -0.000
       0.000  0.000  0.000 -0.000  0.984
     ------------------------ ATOM   20 ------------------------
     Tr[ns( 20)] (up, down, total) =   4.57424  4.72208  9.29633
     Atomic magnetic moment for atom  20 =  -0.14784
     SPIN  1
     eigenvalues:
       0.688  0.949  0.977  0.977  0.984
     eigenvectors (columns):
       0.000  1.000 -0.000 -0.000  0.000
      -0.000  0.000  1.000 -0.000  0.000
      -0.000  0.000  0.000  1.000  0.000
       1.000 -0.000  0.000  0.000 -0.000
       0.000 -0.000 -0.000 -0.000  1.000
     occupation matrix ns (before diag.):
       0.949 -0.000 -0.000 -0.000  0.000
      -0.000  0.977 -0.000  0.000  0.000
      -0.000 -0.000  0.977  0.000  0.000
      -0.000  0.000  0.000  0.688 -0.000
       0.000  0.000  0.000 -0.000  0.984
     SPIN  2
     eigenvalues:
       0.831  0.952  0.977  0.977  0.985
     eigenvectors (columns):
       0.000  1.000 -0.000 -0.000  0.000
      -0.000  0.000  1.000 -0.000  0.000
      -0.000  0.000  0.000  1.000  0.000
       1.000 -0.000  0.000  0.000 -0.000
       0.000 -0.000 -0.000 -0.000  1.000
     occupation matrix ns (before diag.):
       0.952 -0.000 -0.000 -0.000  0.000
      -0.000  0.977 -0.000  0.000  0.000
      -0.000 -0.000  0.977  0.000  0.000
      -0.000  0.000  0.000  0.831 -0.000
       0.000  0.000  0.000 -0.000  0.985
     ------------------------ ATOM   21 ------------------------
     Tr[ns( 21)] (up, down, total) =   4.72199  4.57433  9.29632
     Atomic magnetic moment for atom  21 =   0.14766
     SPIN  1
     eigenvalues:
       0.831  0.952  0.977  0.977  0.985
     eigenvectors (columns):
      -0.000  1.000 -0.000 -0.000  0.000
      -0.000  0.000  0.000  1.000  0.000
      -0.000  0.000  1.000 -0.000  0.000
       1.000  0.000  0.000  0.000 -0.000
       0.000 -0.000 -0.000 -0.000  1.000
     occupation matrix ns (before diag.):
       0.952 -0.000 -0.000  0.000  0.000
      -0.000  0.977 -0.000  0.000  0.000
      -0.000 -0.000  0.977  0.000  0.000
       0.000  0.000  0.000  0.831 -0.000
       0.000  0.000  0.000 -0.000  0.985
     SPIN  2
     eigenvalues:
       0.688  0.949  0.977  0.977  0.984
     eigenvectors (columns):
      -0.000  1.000 -0.000 -0.000  0.000
      -0.000  0.000  0.000  1.000  0.000
      -0.000  0.000  1.000 -0.000  0.000
       1.000  0.000  0.000  0.000 -0.000
       0.000 -0.000 -0.000 -0.000  1.000
     occupation matrix ns (before diag.):
       0.949 -0.000 -0.000  0.000  0.000
      -0.000  0.977 -0.000  0.000  0.000
      -0.000 -0.000  0.977  0.000  0.000
       0.000  0.000  0.000  0.688 -0.000
       0.000  0.000  0.000 -0.000  0.984
     ------------------------ ATOM   23 ------------------------
     Tr[ns( 23)] (up, down, total) =   4.72213  4.57419  9.29633
     Atomic magnetic moment for atom  23 =   0.14794
     SPIN  1
     eigenvalues:
       0.831  0.952  0.977  0.977  0.985
     eigenvectors (columns):
      -0.000  1.000 -0.000 -0.000  0.000
      -0.000  0.000  0.378  0.926  0.000
      -0.000  0.000  0.926 -0.378  0.000
       1.000  0.000  0.000  0.000 -0.000
       0.000 -0.000 -0.000 -0.000  1.000
     occupation matrix ns (before diag.):
       0.952 -0.000 -0.000  0.000  0.000
      -0.000  0.977 -0.000  0.000  0.000
      -0.000 -0.000  0.977  0.000  0.000
       0.000  0.000  0.000  0.831 -0.000
       0.000  0.000  0.000 -0.000  0.985
     SPIN  2
     eigenvalues:
       0.688  0.949  0.977  0.977  0.984
     eigenvectors (columns):
      -0.000  1.000 -0.000 -0.000  0.000
      -0.000  0.000  0.340  0.940  0.000
      -0.000  0.000  0.940 -0.340  0.000
       1.000  0.000  0.000  0.000 -0.000
       0.000 -0.000 -0.000 -0.000  1.000
     occupation matrix ns (before diag.):
       0.949 -0.000 -0.000  0.000  0.000
      -0.000  0.977 -0.000  0.000  0.000
      -0.000 -0.000  0.977  0.000  0.000
       0.000  0.000  0.000  0.688 -0.000
       0.000  0.000  0.000 -0.000  0.984
     ------------------------ ATOM   24 ------------------------
     Tr[ns( 24)] (up, down, total) =   4.57426  4.72208  9.29634
     Atomic magnetic moment for atom  24 =  -0.14782
     SPIN  1
     eigenvalues:
       0.688  0.949  0.977  0.977  0.984
     eigenvectors (columns):
      -0.000  1.000 -0.000 -0.000  0.000
      -0.000  0.000  0.370  0.929  0.000
      -0.000  0.000  0.929 -0.370  0.000
       1.000  0.000  0.000  0.000 -0.000
       0.000 -0.000 -0.000 -0.000  1.000
     occupation matrix ns (before diag.):
       0.949 -0.000 -0.000  0.000  0.000
      -0.000  0.977 -0.000  0.000  0.000
      -0.000 -0.000  0.977  0.000  0.000
       0.000  0.000  0.000  0.688 -0.000
       0.000  0.000  0.000 -0.000  0.984
     SPIN  2
     eigenvalues:
       0.831  0.952  0.977  0.977  0.985
     eigenvectors (columns):
      -0.000  1.000 -0.000 -0.000  0.000
      -0.000  0.000  0.316  0.949  0.000
      -0.000  0.000  0.949 -0.316  0.000
       1.000  0.000  0.000  0.000 -0.000
       0.000 -0.000 -0.000 -0.000  1.000
     occupation matrix ns (before diag.):
       0.952 -0.000 -0.000  0.000  0.000
      -0.000  0.977 -0.000  0.000  0.000
      -0.000 -0.000  0.977  0.000  0.000
       0.000  0.000  0.000  0.831 -0.000
       0.000  0.000  0.000 -0.000  0.985

     Number of occupied Hubbard levels =   74.3706

     Atomic wfc used for Hubbard projectors are orthogonalized

     Starting wfcs are  408 randomized atomic wfcs

     Band Structure Calculation
     Davidson diagonalization with overlap

     Computing kpt #:     1  of     2
     total cpu time spent up to now is      105.9 secs

     Computing kpt #:     2  of     2
     total cpu time spent up to now is      200.8 secs

     ethr =  2.02E-12,  avg # of iterations = 72.5

     Warning: too many iterations in bisection
     ef =  10.910172 sumk = 496.000000 electrons

     total cpu time spent up to now is      200.8 secs

     End of band structure calculation

 ------ SPIN UP ------------


          k = 0.2500 0.2500 0.1639 ( 35318 PWs)   bands (ev):

  -100.5225-100.5224-100.5223-100.5223-100.2928-100.2927-100.2927-100.2925
   -99.9705 -99.9705 -99.9705 -99.9705 -58.5465 -58.5465 -58.5464 -58.5464
   -58.5463 -58.5463 -58.5463 -58.5463 -58.2817 -58.2817 -58.2816 -58.2816
   -58.2816 -58.2816 -58.2814 -58.2814 -58.0390 -58.0389 -58.0389 -58.0389
   -58.0305 -58.0305 -58.0305 -58.0305 -57.9127 -57.9126 -57.9126 -57.9125
   -57.7115 -57.7115 -57.7115 -57.7115 -57.7114 -57.7114 -57.7113 -57.7113
   -30.1938 -30.1811 -30.1811 -30.1687 -15.2038 -15.1943 -15.1032 -15.1032
   -15.0954 -15.0954 -15.0194 -15.0121 -10.9279 -10.9279 -10.9222 -10.8893
   -10.8706 -10.7013 -10.7013 -10.5010 -10.4302 -10.3988 -10.3880 -10.3880
    -7.6069  -7.0171  -7.0171  -6.9979  -6.9979  -6.8090  -6.7383  -6.7176
    -6.4959  -6.4186  -6.4186  -6.4038  -6.3612  -6.3442  -6.3442  -6.1789
    -6.1560  -6.1560  -6.0584  -6.0216  -5.8520  -5.8520  -5.7275  -5.6735
    -0.8632  -0.8466  -0.6776  -0.6156  -0.5900  -0.5900  -0.5803  -0.5342
    -0.4579  -0.4579  -0.4279  -0.4194  -0.3421  -0.3421  -0.2771  -0.2771
    -0.2227  -0.2123   0.0110   0.0110   0.0435   0.0435   0.0440   0.0782
     3.3078   3.8784   4.1573   4.1574   4.4150   4.4150   4.8375   4.8681
     4.8910   5.1120   5.1231   5.3009   5.3840   5.3840   5.4003   5.4296
     5.4296   5.4976   5.6282   5.6282   5.7192   5.7899   5.8003   5.8344
     5.8344   5.8794   5.8794   6.0142   6.0142   6.0804   6.1505   6.5260
     6.5297   6.5297   6.5474   6.5671   6.6005   6.6005   6.6316   6.6641
     6.9603   6.9629   7.0225   7.0225   7.1414   7.1414   7.2281   7.3210
     7.3210   7.3575   7.4641   7.4641   7.4935   7.5005   7.5830   7.5830
     7.6161   7.6615   7.6948   7.6948   7.6975   7.7058   7.8760   7.8784
     7.8856   7.9210   7.9210   8.0817   8.0818   8.1822   8.1822   8.3717
     8.3717   8.3940   8.4463   8.4661   8.4982   8.5314   8.5770   8.6245
     8.6539   8.6539   8.7058   8.7145   8.7145   8.7634   8.7787   8.8156
     8.8156   8.8577   8.9305   8.9442   8.9916   9.0012   9.0320   9.0320
     9.1502   9.1558   9.1558   9.1776   9.2151   9.2178   9.2280   9.2326
     9.2326   9.2513   9.2790   9.2790   9.3221   9.4504   9.4603   9.4901
     9.4901   9.6036   9.6036   9.8826  10.0139  10.0211  10.3445  10.3445
    10.4150  10.4152  10.5661  10.5863  10.5863  10.6607  10.8338  10.9020
    10.9219  10.9220  12.2795  12.3730  13.1321  13.1321  13.4709  13.6688
    13.9294  14.0334  14.0929  14.5472  14.7534  14.8640  14.8640  14.9481
    14.9482  15.2447  15.2447  15.4125  15.4857  15.6770  15.8544  16.0115
    16.0299  16.3711  16.3711  16.4652  16.4771  16.4771  16.5264  16.5329
    16.5329  16.6081  16.6206  16.6206  16.7704  17.0827  17.1198  17.1198
    17.1946  17.1946  17.2647  17.4889  17.4980  17.5425  17.5425  17.5576
    17.5956  17.6123

     occupation numbers 
     1.0000   1.0000   1.0000   1.0000   1.0000   1.0000   1.0000   1.0000
     1.0000   1.0000   1.0000   1.0000   1.0000   1.0000   1.0000   1.0000
     1.0000   1.0000   1.0000   1.0000   1.0000   1.0000   1.0000   1.0000
     1.0000   1.0000   1.0000   1.0000   1.0000   1.0000   1.0000   1.0000
     1.0000   1.0000   1.0000   1.0000   1.0000   1.0000   1.0000   1.0000
     1.0000   1.0000   1.0000   1.0000   1.0000   1.0000   1.0000   1.0000
     1.0000   1.0000   1.0000   1.0000   1.0000   1.0000   1.0000   1.0000
     1.0000   1.0000   1.0000   1.0000   1.0000   1.0000   1.0000   1.0000
     1.0000   1.0000   1.0000   1.0000   1.0000   1.0000   1.0000   1.0000
     1.0000   1.0000   1.0000   1.0000   1.0000   1.0000   1.0000   1.0000
     1.0000   1.0000   1.0000   1.0000   1.0000   1.0000   1.0000   1.0000
     1.0000   1.0000   1.0000   1.0000   1.0000   1.0000   1.0000   1.0000
     1.0000   1.0000   1.0000   1.0000   1.0000   1.0000   1.0000   1.0000
     1.0000   1.0000   1.0000   1.0000   1.0000   1.0000   1.0000   1.0000
     1.0000   1.0000   1.0000   1.0000   1.0000   1.0000   1.0000   1.0000
     1.0000   1.0000   1.0000   1.0000   1.0000   1.0000   1.0000   1.0000
     1.0000   1.0000   1.0000   1.0000   1.0000   1.0000   1.0000   1.0000
     1.0000   1.0000   1.0000   1.0000   1.0000   1.0000   1.0000   1.0000
     1.0000   1.0000   1.0000   1.0000   1.0000   1.0000   1.0000   1.0000
     1.0000   1.0000   1.0000   1.0000   1.0000   1.0000   1.0000   1.0000
     1.0000   1.0000   1.0000   1.0000   1.0000   1.0000   1.0000   1.0000
     1.0000   1.0000   1.0000   1.0000   1.0000   1.0000   1.0000   1.0000
     1.0000   1.0000   1.0000   1.0000   1.0000   1.0000   1.0000   1.0000
     1.0000   1.0000   1.0000   1.0000   1.0000   1.0000   1.0000   1.0000
     1.0000   1.0000   1.0000   1.0000   1.0000   1.0000   1.0000   1.0000
     1.0000   1.0000   1.0000   1.0000   1.0000   1.0000   1.0000   1.0000
     1.0000   1.0000   1.0000   1.0000   1.0000   1.0000   1.0000   1.0000
     1.0000   1.0000   1.0000   1.0000   1.0000   1.0000   1.0000   1.0000
     1.0000   1.0000   1.0000   1.0000   1.0000   1.0000   1.0000   1.0000
     1.0000   1.0000   1.0000   1.0000   1.0000   1.0000   1.0000   1.0000
     1.0000   1.0000   1.0000   1.0000   1.0000   1.0000   1.0000   1.0000
     0.0000   0.0000   0.0000   0.0000   0.0000   0.0000   0.0000   0.0000
     0.0000   0.0000   0.0000   0.0000   0.0000   0.0000   0.0000   0.0000
     0.0000   0.0000   0.0000   0.0000   0.0000   0.0000   0.0000   0.0000
     0.0000   0.0000   0.0000   0.0000   0.0000   0.0000   0.0000   0.0000
     0.0000   0.0000   0.0000   0.0000   0.0000   0.0000   0.0000   0.0000
     0.0000   0.0000   0.0000   0.0000   0.0000   0.0000   0.0000   0.0000
     0.0000   0.0000

 ------ SPIN DOWN ----------


          k = 0.2500 0.2500 0.1639 ( 35318 PWs)   bands (ev):

  -100.5223-100.5222-100.5222-100.5221-100.2930-100.2930-100.2928-100.2927
   -99.9705 -99.9705 -99.9705 -99.9705 -58.5463 -58.5463 -58.5462 -58.5462
   -58.5462 -58.5462 -58.5461 -58.5461 -58.2820 -58.2820 -58.2820 -58.2820
   -58.2817 -58.2817 -58.2816 -58.2816 -58.0389 -58.0388 -58.0388 -58.0387
   -58.0305 -58.0305 -58.0305 -58.0305 -57.9129 -57.9129 -57.9128 -57.9127
   -57.7115 -57.7115 -57.7115 -57.7115 -57.7114 -57.7114 -57.7113 -57.7113
   -30.1938 -30.1811 -30.1811 -30.1687 -15.2038 -15.1943 -15.1032 -15.1032
   -15.0954 -15.0954 -15.0194 -15.0121 -10.9279 -10.9279 -10.9222 -10.8893
   -10.8706 -10.7013 -10.7013 -10.5010 -10.4302 -10.3988 -10.3880 -10.3880
    -7.6069  -7.0171  -7.0171  -6.9980  -6.9979  -6.8090  -6.7383  -6.7176
    -6.4959  -6.4186  -6.4186  -6.4038  -6.3613  -6.3442  -6.3442  -6.1789
    -6.1560  -6.1560  -6.0584  -6.0216  -5.8520  -5.8520  -5.7275  -5.6735
    -0.8632  -0.8466  -0.6776  -0.6156  -0.5900  -0.5900  -0.5803  -0.5342
    -0.4579  -0.4579  -0.4279  -0.4194  -0.3421  -0.3421  -0.2771  -0.2771
    -0.2227  -0.2123   0.0110   0.0110   0.0435   0.0435   0.0440   0.0782
     3.3078   3.8784   4.1573   4.1573   4.4149   4.4150   4.8375   4.8681
     4.8909   5.1120   5.1231   5.3008   5.3839   5.3840   5.4003   5.4295
     5.4296   5.4976   5.6282   5.6282   5.7192   5.7899   5.8003   5.8344
     5.8344   5.8794   5.8794   6.0142   6.0142   6.0804   6.1505   6.5260
     6.5297   6.5297   6.5474   6.5670   6.6005   6.6005   6.6316   6.6641
     6.9603   6.9629   7.0225   7.0225   7.1414   7.1414   7.2281   7.3210
     7.3210   7.3575   7.4641   7.4641   7.4935   7.5005   7.5829   7.5830
     7.6161   7.6615   7.6948   7.6948   7.6975   7.7058   7.8759   7.8784
     7.8856   7.9210   7.9210   8.0817   8.0817   8.1822   8.1822   8.3717
     8.3717   8.3940   8.4463   8.4661   8.4982   8.5314   8.5770   8.6245
     8.6538   8.6539   8.7058   8.7145   8.7145   8.7634   8.7787   8.8155
     8.8156   8.8577   8.9305   8.9442   8.9916   9.0012   9.0320   9.0320
     9.1502   9.1558   9.1558   9.1776   9.2151   9.2178   9.2280   9.2326
     9.2326   9.2513   9.2790   9.2790   9.3221   9.4504   9.4603   9.4901
     9.4901   9.6036   9.6036   9.8825  10.0139  10.0211  10.3445  10.3445
    10.4151  10.4151  10.5661  10.5863  10.5864  10.6607  10.8338  10.9020
    10.9216  10.9220  12.2794  12.3729  13.1321  13.1321  13.4709  13.6688
    13.9294  14.0334  14.0929  14.5472  14.7534  14.8640  14.8640  14.9481
    14.9482  15.2447  15.2447  15.4125  15.4857  15.6770  15.8544  16.0115
    16.0299  16.3711  16.3711  16.4652  16.4771  16.4771  16.5264  16.5329
    16.5329  16.6081  16.6206  16.6206  16.7704  17.0827  17.1198  17.1198
    17.1946  17.1946  17.2647  17.4889  17.4980  17.5425  17.5425  17.5576
    17.5956  17.6123

     occupation numbers 
     1.0000   1.0000   1.0000   1.0000   1.0000   1.0000   1.0000   1.0000
     1.0000   1.0000   1.0000   1.0000   1.0000   1.0000   1.0000   1.0000
     1.0000   1.0000   1.0000   1.0000   1.0000   1.0000   1.0000   1.0000
     1.0000   1.0000   1.0000   1.0000   1.0000   1.0000   1.0000   1.0000
     1.0000   1.0000   1.0000   1.0000   1.0000   1.0000   1.0000   1.0000
     1.0000   1.0000   1.0000   1.0000   1.0000   1.0000   1.0000   1.0000
     1.0000   1.0000   1.0000   1.0000   1.0000   1.0000   1.0000   1.0000
     1.0000   1.0000   1.0000   1.0000   1.0000   1.0000   1.0000   1.0000
     1.0000   1.0000   1.0000   1.0000   1.0000   1.0000   1.0000   1.0000
     1.0000   1.0000   1.0000   1.0000   1.0000   1.0000   1.0000   1.0000
     1.0000   1.0000   1.0000   1.0000   1.0000   1.0000   1.0000   1.0000
     1.0000   1.0000   1.0000   1.0000   1.0000   1.0000   1.0000   1.0000
     1.0000   1.0000   1.0000   1.0000   1.0000   1.0000   1.0000   1.0000
     1.0000   1.0000   1.0000   1.0000   1.0000   1.0000   1.0000   1.0000
     1.0000   1.0000   1.0000   1.0000   1.0000   1.0000   1.0000   1.0000
     1.0000   1.0000   1.0000   1.0000   1.0000   1.0000   1.0000   1.0000
     1.0000   1.0000   1.0000   1.0000   1.0000   1.0000   1.0000   1.0000
     1.0000   1.0000   1.0000   1.0000   1.0000   1.0000   1.0000   1.0000
     1.0000   1.0000   1.0000   1.0000   1.0000   1.0000   1.0000   1.0000
     1.0000   1.0000   1.0000   1.0000   1.0000   1.0000   1.0000   1.0000
     1.0000   1.0000   1.0000   1.0000   1.0000   1.0000   1.0000   1.0000
     1.0000   1.0000   1.0000   1.0000   1.0000   1.0000   1.0000   1.0000
     1.0000   1.0000   1.0000   1.0000   1.0000   1.0000   1.0000   1.0000
     1.0000   1.0000   1.0000   1.0000   1.0000   1.0000   1.0000   1.0000
     1.0000   1.0000   1.0000   1.0000   1.0000   1.0000   1.0000   1.0000
     1.0000   1.0000   1.0000   1.0000   1.0000   1.0000   1.0000   1.0000
     1.0000   1.0000   1.0000   1.0000   1.0000   1.0000   1.0000   1.0000
     1.0000   1.0000   1.0000   1.0000   1.0000   1.0000   1.0000   1.0000
     1.0000   1.0000   1.0000   1.0000   1.0000   1.0000   1.0000   1.0000
     1.0000   1.0000   1.0000   1.0000   1.0000   1.0000   1.0000   1.0000
     1.0000   1.0000   1.0000   1.0000   1.0000   1.0000   1.0000   1.0000
     0.0000   0.0000   0.0000   0.0000   0.0000   0.0000   0.0000   0.0000
     0.0000   0.0000   0.0000   0.0000   0.0000   0.0000   0.0000   0.0000
     0.0000   0.0000   0.0000   0.0000   0.0000   0.0000   0.0000   0.0000
     0.0000   0.0000   0.0000   0.0000   0.0000   0.0000   0.0000   0.0000
     0.0000   0.0000   0.0000   0.0000   0.0000   0.0000   0.0000   0.0000
     0.0000   0.0000   0.0000   0.0000   0.0000   0.0000   0.0000   0.0000
     0.0000   0.0000

     the Fermi energy is    10.9102 ev
     (compare with:    11.0153 eV, computed in scf)

     Writing all to output data dir ./YBCO6/YBCO6.save/
 
     init_run     :      8.40s CPU      9.19s WALL (       1 calls)
     electrons    :    189.35s CPU    191.37s WALL (       1 calls)

     Called by init_run:
     wfcinit      :      3.25s CPU      3.34s WALL (       1 calls)
     wfcinit:atom :      0.04s CPU      0.05s WALL (       2 calls)
     wfcinit:wfcr :      5.87s CPU      5.99s WALL (       2 calls)
     potinit      :      0.12s CPU      0.15s WALL (       1 calls)
     hinit0       :      1.20s CPU      1.22s WALL (       1 calls)

     Called by electrons:
     c_bands      :    189.32s CPU    191.35s WALL (       1 calls)
     v_of_rho     :      0.06s CPU      0.07s WALL (       1 calls)
     v_h          :      0.02s CPU      0.02s WALL (       1 calls)
     v_xc         :      0.04s CPU      0.05s WALL (       1 calls)
     newd         :      3.62s CPU      4.26s WALL (       1 calls)

     Called by c_bands:
     init_us_2    :      0.10s CPU      0.12s WALL (       4 calls)
     init_us_2:cp :      0.10s CPU      0.12s WALL (       4 calls)
     cegterg      :    182.74s CPU    184.52s WALL (       8 calls)

     Called by sum_band:

     Called by *egterg:
     cdiaghg      :     12.46s CPU     13.00s WALL (     147 calls)
     cegterg:over :     23.06s CPU     23.19s WALL (     145 calls)
     cegterg:upda :     13.80s CPU     13.94s WALL (     145 calls)
     cegterg:last :     35.17s CPU     35.20s WALL (      54 calls)
     cdiaghg:chol :      0.20s CPU      0.22s WALL (     147 calls)
     cdiaghg:inve :      0.14s CPU      0.16s WALL (     147 calls)
     cdiaghg:para :      2.62s CPU      2.94s WALL (     294 calls)
     h_psi        :     79.77s CPU     80.58s WALL (     155 calls)
     s_psi        :     21.16s CPU     21.19s WALL (     157 calls)
     g_psi        :      0.41s CPU      0.41s WALL (     145 calls)

     Called by h_psi:
     h_psi:calbec :     19.41s CPU     19.49s WALL (     155 calls)
     vloc_psi     :     33.66s CPU     34.24s WALL (     155 calls)
     add_vuspsi   :     20.51s CPU     20.52s WALL (     155 calls)
     vhpsi        :      5.69s CPU      5.73s WALL (     155 calls)

     General routines
     calbec       :     21.55s CPU     21.65s WALL (     312 calls)
     fft          :      0.09s CPU      0.10s WALL (       9 calls)
     ffts         :      0.00s CPU      0.00s WALL (       2 calls)
     fftw         :     18.78s CPU     19.09s WALL (   35332 calls)
     interpolate  :      0.02s CPU      0.03s WALL (       2 calls)
     davcio       :      0.01s CPU      0.15s WALL (       8 calls)
 
     Parallel routines

     Hubbard U routines
     vhpsi        :      5.69s CPU      5.73s WALL (     155 calls)
 
     PWSCF        :   3m18.05s CPU   3m21.10s WALL

 
   This run was terminated on:   1: 0:13   2Jan2024            

=------------------------------------------------------------------------------=
   JOB DONE.
=------------------------------------------------------------------------------=
