
     Program PWSCF v.7.2 starts on  2Jan2024 at 18:47: 5 

     This program is part of the open-source Quantum ESPRESSO suite
     for quantum simulation of materials; please cite
         "P. Giannozzi et al., J. Phys.:Condens. Matter 21 395502 (2009);
         "P. Giannozzi et al., J. Phys.:Condens. Matter 29 465901 (2017);
         "P. Giannozzi et al., J. Chem. Phys. 152 154105 (2020);
          URL http://www.quantum-espresso.org", 
     in publications or presentations arising from this work. More details at
     http://www.quantum-espresso.org/quote

     Parallel version (MPI), running on     4 processors

     MPI processes distributed on     1 nodes
     7858 MiB available memory on the printing compute node when the environment starts
 
     Waiting for input...
     Reading input from standard input
Warning: card &IONS ignored
Warning: card ION_DYNAMICS = 'BFGS' ignored
Warning: card / ignored
Warning: card &CELL ignored
Warning: card / ignored

     Current dimensions of program PWSCF are:
     Max number of different atomic species (ntypx) = 10
     Max number of k-points (npk) =  40000
     Max angular momentum in pseudopotentials (lmaxx) =  4

     Atomic positions and unit cell read from directory:
     ./YBCO6/YBCO6.save/
 
     Found identity + (  0.5000  0.5000  0.0000) symmetry
     This is a supercell, fractional translations are disabled
 
     R & G space division:  proc/nbgrp/npool/nimage =       4
     Subspace diagonalization in iterative solution of the eigenvalue problem:
     one sub-group per band group will be used
     custom distributed-memory algorithm (size of sub-group:  2*  2 procs)

 
     Parallelization info
     --------------------
     sticks:   dense  smooth     PW     G-vecs:    dense   smooth      PW
     Min        2210     984    261               238514    70654    9754
     Max        2211     985    263               238519    70656    9757
     Sum        8841    3937   1049               954065   282619   39023
 
     Using Slab Decomposition
 


     bravais-lattice index     =            6
     lattice parameter (alat)  =      14.3459  a.u.
     unit-cell volume          =    4502.1906 (a.u.)^3
     number of atoms/cell      =           48
     number of atomic types    =            6
     number of electrons       =       496.00
     number of Kohn-Sham states=          298
     kinetic-energy cutoff     =      60.0000  Ry
     charge density cutoff     =     540.0000  Ry
     Exchange-correlation= SLA  PZ   NOGX NOGC
                           (   1   1   0   0   0   0   0)
     Hubbard projectors: ortho-atomic
     Hubbard parameters of DFT+U (Dudarev formulation) in eV:
     U(Cu1-3d) =  2.5000
     U(Cu2-3d) =  2.5000

     Internal variables: lda_plus_u = T, lda_plus_u_kind = 0

     celldm(1)=  14.345919  celldm(2)=   0.000000  celldm(3)=   1.524891
     celldm(4)=   0.000000  celldm(5)=   0.000000  celldm(6)=   0.000000

     crystal axes: (cart. coord. in units of alat)
               a(1) = (   1.000000   0.000000   0.000000 )  
               a(2) = (   0.000000   1.000000   0.000000 )  
               a(3) = (   0.000000   0.000000   1.524891 )  

     reciprocal axes: (cart. coord. in units 2 pi/alat)
               b(1) = (  1.000000  0.000000  0.000000 )  
               b(2) = (  0.000000  1.000000  0.000000 )  
               b(3) = (  0.000000  0.000000  0.655785 )  


     PseudoPot. # 1 for Y  read from file:
     ~/q-e/pseudo/gbrv_lda/y_lda_v1.4.uspp.F.UPF
     MD5 check sum: Not computed, couldn't open file
     Pseudo is Ultrasoft + core correction, Zval = 11.0
     Generated by new atomic code, or converted to UPF format
     Using radial grid of  885 points,  6 beta functions with: 
                l(1) =   0
                l(2) =   0
                l(3) =   1
                l(4) =   1
                l(5) =   2
                l(6) =   2
     Q(r) pseudized with  8 coefficients,  rinner =    1.200   1.200   1.200
                                                       1.200   1.200

     PseudoPot. # 2 for Ba read from file:
     ~/q-e/pseudo/gbrv_lda/ba_lda_v1.uspp.F.UPF
     MD5 check sum: Not computed, couldn't open file
     Pseudo is Ultrasoft + core correction, Zval = 10.0
     Generated by new atomic code, or converted to UPF format
     Using radial grid of  907 points,  7 beta functions with: 
                l(1) =   0
                l(2) =   0
                l(3) =   1
                l(4) =   1
                l(5) =   2
                l(6) =   2
                l(7) =   3
     Q(r) pseudized with  6 coefficients,  rinner =    1.700   1.700   1.700
                                                       1.700   1.700   1.700
                                                       1.700

     PseudoPot. # 3 for Cu read from file:
     ~/q-e/pseudo/gbrv_lda/cu_lda_v1.2.uspp.F.UPF
     MD5 check sum: Not computed, couldn't open file
     Pseudo is Ultrasoft + core correction, Zval = 19.0
     Generated by new atomic code, or converted to UPF format
     Using radial grid of  867 points,  6 beta functions with: 
                l(1) =   0
                l(2) =   0
                l(3) =   1
                l(4) =   1
                l(5) =   2
                l(6) =   2
     Q(r) pseudized with  8 coefficients,  rinner =    1.150   1.150   1.150
                                                       1.150   1.150

     PseudoPot. # 4 for Cu read from file:
     ~/q-e/pseudo/gbrv_lda/cu_lda_v1.2.uspp.F.UPF
     MD5 check sum: Not computed, couldn't open file
     Pseudo is Ultrasoft + core correction, Zval = 19.0
     Generated by new atomic code, or converted to UPF format
     Using radial grid of  867 points,  6 beta functions with: 
                l(1) =   0
                l(2) =   0
                l(3) =   1
                l(4) =   1
                l(5) =   2
                l(6) =   2
     Q(r) pseudized with  8 coefficients,  rinner =    1.150   1.150   1.150
                                                       1.150   1.150

     PseudoPot. # 5 for Cu read from file:
     ~/q-e/pseudo/gbrv_lda/cu_lda_v1.2.uspp.F.UPF
     MD5 check sum: Not computed, couldn't open file
     Pseudo is Ultrasoft + core correction, Zval = 19.0
     Generated by new atomic code, or converted to UPF format
     Using radial grid of  867 points,  6 beta functions with: 
                l(1) =   0
                l(2) =   0
                l(3) =   1
                l(4) =   1
                l(5) =   2
                l(6) =   2
     Q(r) pseudized with  8 coefficients,  rinner =    1.150   1.150   1.150
                                                       1.150   1.150

     PseudoPot. # 6 for O  read from file:
     ~/q-e/pseudo/gbrv_lda/o_lda_v1.2.uspp.F.UPF
     MD5 check sum: Not computed, couldn't open file
     Pseudo is Ultrasoft + core correction, Zval =  6.0
     Generated by new atomic code, or converted to UPF format
     Using radial grid of  737 points,  5 beta functions with: 
                l(1) =   0
                l(2) =   0
                l(3) =   1
                l(4) =   1
                l(5) =   2
     Q(r) pseudized with  8 coefficients,  rinner =    0.900   0.900   0.900
                                                       0.900   0.900

     atomic species   valence    mass     pseudopotential
     Y                11.00    88.90584     Y ( 1.00)
     Ba               10.00   137.32700     Ba( 1.00)
     Cu               19.00    63.54600     Cu( 1.00)
     Cu1              19.00    63.54600     Cu( 1.00)
     Cu2              19.00    63.54600     Cu( 1.00)
     O                 6.00    15.99900     O ( 1.00)

     Starting magnetic structure 
     atomic species   magnetization
     Y               0.000
     Ba              0.000
     Cu              0.000
     Cu1             0.100
     Cu2            -0.100
     O               0.000

      8 Sym. Ops. (no inversion) found


                                    s                        frac. trans.

      isym =  1     identity                                     

 cryst.   s( 1) = (     1          0          0      )
                  (     0          1          0      )
                  (     0          0          1      )

 cart.    s( 1) = (  1.0000000  0.0000000  0.0000000 )
                  (  0.0000000  1.0000000  0.0000000 )
                  (  0.0000000  0.0000000  1.0000000 )


      isym =  2     180 deg rotation - cart. axis [0,0,1]        

 cryst.   s( 2) = (    -1          0          0      )
                  (     0         -1          0      )
                  (     0          0          1      )

 cart.    s( 2) = ( -1.0000000  0.0000000  0.0000000 )
                  (  0.0000000 -1.0000000  0.0000000 )
                  (  0.0000000  0.0000000  1.0000000 )


      isym =  3      90 deg rotation - cart. axis [0,0,-1]       

 cryst.   s( 3) = (     0         -1          0      )
                  (     1          0          0      )
                  (     0          0          1      )

 cart.    s( 3) = (  0.0000000  1.0000000  0.0000000 )
                  ( -1.0000000  0.0000000  0.0000000 )
                  (  0.0000000  0.0000000  1.0000000 )


      isym =  4      90 deg rotation - cart. axis [0,0,1]        

 cryst.   s( 4) = (     0          1          0      )
                  (    -1          0          0      )
                  (     0          0          1      )

 cart.    s( 4) = (  0.0000000 -1.0000000  0.0000000 )
                  (  1.0000000  0.0000000  0.0000000 )
                  (  0.0000000  0.0000000  1.0000000 )


      isym =  5     inv. 180 deg rotation - cart. axis [0,1,0]   

 cryst.   s( 5) = (     1          0          0      )
                  (     0         -1          0      )
                  (     0          0          1      )

 cart.    s( 5) = (  1.0000000  0.0000000  0.0000000 )
                  (  0.0000000 -1.0000000  0.0000000 )
                  (  0.0000000  0.0000000  1.0000000 )


      isym =  6     inv. 180 deg rotation - cart. axis [1,0,0]   

 cryst.   s( 6) = (    -1          0          0      )
                  (     0          1          0      )
                  (     0          0          1      )

 cart.    s( 6) = ( -1.0000000  0.0000000  0.0000000 )
                  (  0.0000000  1.0000000  0.0000000 )
                  (  0.0000000  0.0000000  1.0000000 )


      isym =  7     inv. 180 deg rotation - cart. axis [1,1,0]   

 cryst.   s( 7) = (     0         -1          0      )
                  (    -1          0          0      )
                  (     0          0          1      )

 cart.    s( 7) = (  0.0000000 -1.0000000  0.0000000 )
                  ( -1.0000000  0.0000000  0.0000000 )
                  (  0.0000000  0.0000000  1.0000000 )


      isym =  8     inv. 180 deg rotation - cart. axis [1,-1,0]  

 cryst.   s( 8) = (     0          1          0      )
                  (     1          0          0      )
                  (     0          0          1      )

 cart.    s( 8) = (  0.0000000  1.0000000  0.0000000 )
                  (  1.0000000  0.0000000  0.0000000 )
                  (  0.0000000  0.0000000  1.0000000 )


     point group C_4v (4mm) 
     there are  5 classes
     the character table:

       E     2C4   C2    2s_v  2s_d 
A_1    1.00  1.00  1.00  1.00  1.00
A_2    1.00  1.00  1.00 -1.00 -1.00
B_1    1.00 -1.00  1.00  1.00 -1.00
B_2    1.00 -1.00  1.00 -1.00  1.00
E      2.00  0.00 -2.00  0.00  0.00

     the symmetry operations in each class and the name of the first element:

     E        1
          identity                                               
     2C4      3    4
           90 deg rotation - cart. axis [0,0,-1]                 
     C2       2
          180 deg rotation - cart. axis [0,0,1]                  
     2s_v     5    6
          inv. 180 deg rotation - cart. axis [0,1,0]             
     2s_d     7    8
          inv. 180 deg rotation - cart. axis [1,1,0]             

   Cartesian axes

     site n.     atom                  positions (alat units)
         1        Y      tau(   1) = (   0.2500000   0.2500000   0.7624455  )
         2        Y      tau(   2) = (   0.2500000   0.7500000   0.7624455  )
         3        Y      tau(   3) = (   0.7500000   0.2500000   0.7624455  )
         4        Y      tau(   4) = (   0.7500000   0.7500000   0.7624455  )
         5        Ba     tau(   5) = (   0.2500000   0.2500000   0.2966571  )
         6        Ba     tau(   6) = (   0.2500000   0.2500000   1.2282339  )
         7        Ba     tau(   7) = (   0.2500000   0.7500000   0.2966571  )
         8        Ba     tau(   8) = (   0.2500000   0.7500000   1.2282339  )
         9        Ba     tau(   9) = (   0.7500000   0.2500000   0.2966571  )
        10        Ba     tau(  10) = (   0.7500000   0.2500000   1.2282339  )
        11        Ba     tau(  11) = (   0.7500000   0.7500000   0.2966571  )
        12        Ba     tau(  12) = (   0.7500000   0.7500000   1.2282339  )
        13        Cu     tau(  13) = (   0.0000000   0.0000000   0.0000000  )
        14        Cu1    tau(  14) = (   0.0000000   0.0000000   0.5526369  )
        15        Cu2    tau(  15) = (   0.0000000   0.0000000   0.9722541  )
        16        Cu     tau(  16) = (   0.0000000   0.5000000   0.0000000  )
        17        Cu2    tau(  17) = (   0.0000000   0.5000000   0.5526369  )
        18        Cu1    tau(  18) = (   0.0000000   0.5000000   0.9722541  )
        19        Cu     tau(  19) = (   0.5000000   0.0000000   0.0000000  )
        20        Cu2    tau(  20) = (   0.5000000   0.0000000   0.5526369  )
        21        Cu1    tau(  21) = (   0.5000000   0.0000000   0.9722541  )
        22        Cu     tau(  22) = (   0.5000000   0.5000000   0.0000000  )
        23        Cu1    tau(  23) = (   0.5000000   0.5000000   0.5526369  )
        24        Cu2    tau(  24) = (   0.5000000   0.5000000   0.9722541  )
        25        O      tau(  25) = (   0.0000000   0.0000000   0.2314064  )
        26        O      tau(  26) = (   0.0000000   0.0000000   1.2934846  )
        27        O      tau(  27) = (   0.5000000   0.0000000   0.2314064  )
        28        O      tau(  28) = (   0.5000000   0.0000000   1.2934846  )
        29        O      tau(  29) = (   0.0000000   0.5000000   0.2314064  )
        30        O      tau(  30) = (   0.0000000   0.5000000   1.2934846  )
        31        O      tau(  31) = (   0.5000000   0.5000000   0.2314064  )
        32        O      tau(  32) = (   0.5000000   0.5000000   1.2934846  )
        33        O      tau(  33) = (   0.2500000   0.0000000   0.5769788  )
        34        O      tau(  34) = (   0.2500000   0.0000000   0.9479122  )
        35        O      tau(  35) = (   0.2500000   0.5000000   0.5769788  )
        36        O      tau(  36) = (   0.2500000   0.5000000   0.9479122  )
        37        O      tau(  37) = (   0.7500000   0.0000000   0.5769788  )
        38        O      tau(  38) = (   0.7500000   0.0000000   0.9479122  )
        39        O      tau(  39) = (   0.7500000   0.5000000   0.5769788  )
        40        O      tau(  40) = (   0.7500000   0.5000000   0.9479122  )
        41        O      tau(  41) = (   0.0000000   0.2500000   0.5769788  )
        42        O      tau(  42) = (   0.0000000   0.2500000   0.9479122  )
        43        O      tau(  43) = (   0.5000000   0.2500000   0.5769788  )
        44        O      tau(  44) = (   0.5000000   0.2500000   0.9479122  )
        45        O      tau(  45) = (   0.0000000   0.7500000   0.5769788  )
        46        O      tau(  46) = (   0.0000000   0.7500000   0.9479122  )
        47        O      tau(  47) = (   0.5000000   0.7500000   0.5769788  )
        48        O      tau(  48) = (   0.5000000   0.7500000   0.9479122  )

   Crystallographic axes

     site n.     atom                  positions (cryst. coord.)
         1        Y      tau(   1) = (  0.2500000  0.2500000  0.5000000  )
         2        Y      tau(   2) = (  0.2500000  0.7500000  0.5000000  )
         3        Y      tau(   3) = (  0.7500000  0.2500000  0.5000000  )
         4        Y      tau(   4) = (  0.7500000  0.7500000  0.5000000  )
         5        Ba     tau(   5) = (  0.2500000  0.2500000  0.1945431  )
         6        Ba     tau(   6) = (  0.2500000  0.2500000  0.8054569  )
         7        Ba     tau(   7) = (  0.2500000  0.7500000  0.1945431  )
         8        Ba     tau(   8) = (  0.2500000  0.7500000  0.8054569  )
         9        Ba     tau(   9) = (  0.7500000  0.2500000  0.1945431  )
        10        Ba     tau(  10) = (  0.7500000  0.2500000  0.8054569  )
        11        Ba     tau(  11) = (  0.7500000  0.7500000  0.1945431  )
        12        Ba     tau(  12) = (  0.7500000  0.7500000  0.8054569  )
        13        Cu     tau(  13) = (  0.0000000  0.0000000  0.0000000  )
        14        Cu1    tau(  14) = (  0.0000000  0.0000000  0.3624108  )
        15        Cu2    tau(  15) = (  0.0000000  0.0000000  0.6375892  )
        16        Cu     tau(  16) = (  0.0000000  0.5000000  0.0000000  )
        17        Cu2    tau(  17) = (  0.0000000  0.5000000  0.3624108  )
        18        Cu1    tau(  18) = (  0.0000000  0.5000000  0.6375892  )
        19        Cu     tau(  19) = (  0.5000000  0.0000000  0.0000000  )
        20        Cu2    tau(  20) = (  0.5000000  0.0000000  0.3624108  )
        21        Cu1    tau(  21) = (  0.5000000  0.0000000  0.6375892  )
        22        Cu     tau(  22) = (  0.5000000  0.5000000  0.0000000  )
        23        Cu1    tau(  23) = (  0.5000000  0.5000000  0.3624108  )
        24        Cu2    tau(  24) = (  0.5000000  0.5000000  0.6375892  )
        25        O      tau(  25) = (  0.0000000  0.0000000  0.1517528  )
        26        O      tau(  26) = (  0.0000000  0.0000000  0.8482472  )
        27        O      tau(  27) = (  0.5000000  0.0000000  0.1517528  )
        28        O      tau(  28) = (  0.5000000  0.0000000  0.8482472  )
        29        O      tau(  29) = (  0.0000000  0.5000000  0.1517528  )
        30        O      tau(  30) = (  0.0000000  0.5000000  0.8482472  )
        31        O      tau(  31) = (  0.5000000  0.5000000  0.1517528  )
        32        O      tau(  32) = (  0.5000000  0.5000000  0.8482472  )
        33        O      tau(  33) = (  0.2500000  0.0000000  0.3783738  )
        34        O      tau(  34) = (  0.2500000  0.0000000  0.6216262  )
        35        O      tau(  35) = (  0.2500000  0.5000000  0.3783738  )
        36        O      tau(  36) = (  0.2500000  0.5000000  0.6216262  )
        37        O      tau(  37) = (  0.7500000  0.0000000  0.3783738  )
        38        O      tau(  38) = (  0.7500000  0.0000000  0.6216262  )
        39        O      tau(  39) = (  0.7500000  0.5000000  0.3783738  )
        40        O      tau(  40) = (  0.7500000  0.5000000  0.6216262  )
        41        O      tau(  41) = (  0.0000000  0.2500000  0.3783738  )
        42        O      tau(  42) = (  0.0000000  0.2500000  0.6216262  )
        43        O      tau(  43) = (  0.5000000  0.2500000  0.3783738  )
        44        O      tau(  44) = (  0.5000000  0.2500000  0.6216262  )
        45        O      tau(  45) = (  0.0000000  0.7500000  0.3783738  )
        46        O      tau(  46) = (  0.0000000  0.7500000  0.6216262  )
        47        O      tau(  47) = (  0.5000000  0.7500000  0.3783738  )
        48        O      tau(  48) = (  0.5000000  0.7500000  0.6216262  )

     number of k points=     6 (tetrahedron method)
                       cart. coord. in units 2pi/alat
        k(    1) = (   0.1250000   0.1250000   0.0819731), wk =   0.1250000
        k(    2) = (   0.1250000   0.1250000   0.2459192), wk =   0.1250000
        k(    3) = (   0.1250000   0.3750000   0.0819731), wk =   0.2500000
        k(    4) = (   0.1250000   0.3750000   0.2459192), wk =   0.2500000
        k(    5) = (   0.3750000   0.3750000   0.0819731), wk =   0.1250000
        k(    6) = (   0.3750000   0.3750000   0.2459192), wk =   0.1250000

                       cryst. coord.
        k(    1) = (   0.1250000   0.1250000   0.1250000), wk =   0.1250000
        k(    2) = (   0.1250000   0.1250000   0.3750000), wk =   0.1250000
        k(    3) = (   0.1250000   0.3750000   0.1250000), wk =   0.2500000
        k(    4) = (   0.1250000   0.3750000   0.3750000), wk =   0.2500000
        k(    5) = (   0.3750000   0.3750000   0.1250000), wk =   0.1250000
        k(    6) = (   0.3750000   0.3750000   0.3750000), wk =   0.1250000

     Dense  grid:   954065 G-vectors     FFT dimensions: ( 108, 108, 162)

     Smooth grid:   282619 G-vectors     FFT dimensions: (  72,  72, 108)

     Dynamical RAM for                 wfc:      40.16 MB

     Dynamical RAM for     wfc (w. buffer):      40.16 MB

     Dynamical RAM for             U proj.:       5.39 MB

     Dynamical RAM for  U proj. (w. buff.):       5.39 MB

     Dynamical RAM for           str. fact:      21.84 MB

     Dynamical RAM for           local pot:       0.00 MB

     Dynamical RAM for          nlocal pot:     107.82 MB

     Dynamical RAM for                qrad:      20.88 MB

     Dynamical RAM for          rho,v,vnew:      43.73 MB

     Dynamical RAM for           G-vectors:      14.19 MB

     Dynamical RAM for          h,s,v(r/c):       4.07 MB

     Dynamical RAM for          <psi|beta>:       3.64 MB

     Dynamical RAM for                 psi:      80.33 MB

     Dynamical RAM for                hpsi:      80.33 MB

     Dynamical RAM for                spsi:      80.33 MB

     Dynamical RAM for      wfcinit/wfcrot:     113.79 MB

     Dynamical RAM for           addusdens:    1372.08 MB

     Estimated static dynamical RAM per process >     301.38 MB

     Estimated max dynamical RAM per process >       1.63 GB

     Estimated total dynamical RAM >       6.54 GB

     Check: negative core charge=   -0.000002
     Generating pointlists ...
     new r_m :   0.1284 (alat units)  1.8421 (a.u.) for type    1
     new r_m :   0.1483 (alat units)  2.1276 (a.u.) for type    2
     new r_m :   0.0955 (alat units)  1.3694 (a.u.) for type    3
     new r_m :   0.1036 (alat units)  1.4864 (a.u.) for type    4
     new r_m :   0.1036 (alat units)  1.4864 (a.u.) for type    5
     new r_m :   0.0955 (alat units)  1.3694 (a.u.) for type    6

     The potential is recalculated from file :
     ./YBCO6/YBCO6.save/charge-density


     negative rho (up, down):  3.570E-01 3.570E-01

     HUBBARD ENERGY =    0.4146  (Ry)

     STARTING HUBBARD OCCUPATIONS:

     =================== HUBBARD OCCUPATIONS ===================
     ------------------------ ATOM   14 ------------------------
     Tr[ns( 14)] (up, down, total) =   4.74397  4.54971  9.29368
     Atomic magnetic moment for atom  14 =   0.19426
     SPIN  1
     eigenvalues:
       0.852  0.952  0.978  0.978  0.985
     eigenvectors (columns):
      -0.000  1.000 -0.000 -0.000  0.000
      -0.000  0.000  0.362  0.932  0.000
      -0.000  0.000  0.932 -0.362  0.000
       1.000  0.000  0.000  0.000 -0.000
       0.000 -0.000 -0.000 -0.000  1.000
     occupation matrix ns (before diag.):
       0.952 -0.000 -0.000  0.000  0.000
      -0.000  0.978 -0.000  0.000  0.000
      -0.000 -0.000  0.978  0.000  0.000
       0.000  0.000  0.000  0.852 -0.000
       0.000  0.000  0.000 -0.000  0.985
     SPIN  2
     eigenvalues:
       0.665  0.947  0.977  0.977  0.984
     eigenvectors (columns):
      -0.000  1.000 -0.000 -0.000  0.000
      -0.000  0.000  0.317  0.948  0.000
      -0.000  0.000  0.948 -0.317  0.000
       1.000  0.000  0.000  0.000 -0.000
       0.000 -0.000 -0.000 -0.000  1.000
     occupation matrix ns (before diag.):
       0.947 -0.000 -0.000  0.000  0.000
      -0.000  0.977 -0.000  0.000  0.000
      -0.000 -0.000  0.977  0.000  0.000
       0.000  0.000  0.000  0.665 -0.000
       0.000  0.000  0.000 -0.000  0.984
     ------------------------ ATOM   15 ------------------------
     Tr[ns( 15)] (up, down, total) =   4.54971  4.74397  9.29368
     Atomic magnetic moment for atom  15 =  -0.19426
     SPIN  1
     eigenvalues:
       0.665  0.947  0.977  0.977  0.984
     eigenvectors (columns):
      -0.000  1.000 -0.000 -0.000  0.000
      -0.000  0.000  0.369  0.929  0.000
      -0.000  0.000  0.929 -0.369  0.000
       1.000  0.000  0.000  0.000 -0.000
       0.000 -0.000 -0.000 -0.000  1.000
     occupation matrix ns (before diag.):
       0.947 -0.000 -0.000  0.000  0.000
      -0.000  0.977 -0.000  0.000  0.000
      -0.000 -0.000  0.977  0.000  0.000
       0.000  0.000  0.000  0.665 -0.000
       0.000  0.000  0.000 -0.000  0.984
     SPIN  2
     eigenvalues:
       0.852  0.952  0.978  0.978  0.985
     eigenvectors (columns):
      -0.000  1.000 -0.000 -0.000  0.000
      -0.000  0.000  0.304  0.953  0.000
      -0.000  0.000  0.953 -0.304  0.000
       1.000  0.000  0.000  0.000 -0.000
       0.000 -0.000 -0.000 -0.000  1.000
     occupation matrix ns (before diag.):
       0.952 -0.000 -0.000  0.000  0.000
      -0.000  0.978 -0.000  0.000  0.000
      -0.000 -0.000  0.978  0.000  0.000
       0.000  0.000  0.000  0.852 -0.000
       0.000  0.000  0.000 -0.000  0.985
     ------------------------ ATOM   17 ------------------------
     Tr[ns( 17)] (up, down, total) =   4.54971  4.74397  9.29368
     Atomic magnetic moment for atom  17 =  -0.19425
     SPIN  1
     eigenvalues:
       0.665  0.947  0.977  0.977  0.984
     eigenvectors (columns):
      -0.000  1.000 -0.000 -0.000  0.000
      -0.000  0.000  0.000  1.000  0.000
      -0.000  0.000  1.000 -0.000  0.000
       1.000  0.000  0.000  0.000 -0.000
       0.000 -0.000 -0.000 -0.000  1.000
     occupation matrix ns (before diag.):
       0.947 -0.000 -0.000  0.000  0.000
      -0.000  0.977 -0.000  0.000  0.000
      -0.000 -0.000  0.977  0.000  0.000
       0.000  0.000  0.000  0.665 -0.000
       0.000  0.000  0.000 -0.000  0.984
     SPIN  2
     eigenvalues:
       0.852  0.952  0.978  0.978  0.985
     eigenvectors (columns):
       0.000  1.000 -0.000 -0.000  0.000
      -0.000  0.000  0.000  1.000  0.000
      -0.000  0.000  1.000 -0.000  0.000
       1.000 -0.000  0.000  0.000 -0.000
       0.000 -0.000 -0.000 -0.000  1.000
     occupation matrix ns (before diag.):
       0.952 -0.000 -0.000 -0.000  0.000
      -0.000  0.978 -0.000  0.000  0.000
      -0.000 -0.000  0.978  0.000  0.000
      -0.000  0.000  0.000  0.852 -0.000
       0.000  0.000  0.000 -0.000  0.985
     ------------------------ ATOM   18 ------------------------
     Tr[ns( 18)] (up, down, total) =   4.74397  4.54971  9.29368
     Atomic magnetic moment for atom  18 =   0.19426
     SPIN  1
     eigenvalues:
       0.852  0.952  0.978  0.978  0.985
     eigenvectors (columns):
       0.000  1.000 -0.000 -0.000  0.000
      -0.000  0.000  0.000  1.000  0.000
      -0.000  0.000  1.000 -0.000  0.000
       1.000 -0.000  0.000  0.000 -0.000
       0.000 -0.000 -0.000 -0.000  1.000
     occupation matrix ns (before diag.):
       0.952 -0.000 -0.000 -0.000  0.000
      -0.000  0.978 -0.000  0.000  0.000
      -0.000 -0.000  0.978  0.000  0.000
      -0.000  0.000  0.000  0.852 -0.000
       0.000  0.000  0.000 -0.000  0.985
     SPIN  2
     eigenvalues:
       0.665  0.947  0.977  0.977  0.984
     eigenvectors (columns):
      -0.000  1.000 -0.000 -0.000  0.000
      -0.000  0.000  1.000 -0.000  0.000
      -0.000  0.000  0.000  1.000  0.000
       1.000  0.000  0.000  0.000 -0.000
       0.000 -0.000 -0.000 -0.000  1.000
     occupation matrix ns (before diag.):
       0.947 -0.000 -0.000  0.000  0.000
      -0.000  0.977 -0.000  0.000  0.000
      -0.000 -0.000  0.977  0.000  0.000
       0.000  0.000  0.000  0.665 -0.000
       0.000  0.000  0.000 -0.000  0.984
     ------------------------ ATOM   20 ------------------------
     Tr[ns( 20)] (up, down, total) =   4.54971  4.74397  9.29368
     Atomic magnetic moment for atom  20 =  -0.19425
     SPIN  1
     eigenvalues:
       0.665  0.947  0.977  0.977  0.984
     eigenvectors (columns):
       0.000  1.000 -0.000 -0.000  0.000
      -0.000  0.000  1.000 -0.000  0.000
      -0.000  0.000  0.000  1.000  0.000
       1.000 -0.000  0.000  0.000 -0.000
       0.000 -0.000 -0.000 -0.000  1.000
     occupation matrix ns (before diag.):
       0.947 -0.000 -0.000 -0.000  0.000
      -0.000  0.977 -0.000  0.000  0.000
      -0.000 -0.000  0.977  0.000  0.000
      -0.000  0.000  0.000  0.665 -0.000
       0.000  0.000  0.000 -0.000  0.984
     SPIN  2
     eigenvalues:
       0.852  0.952  0.978  0.978  0.985
     eigenvectors (columns):
      -0.000  1.000 -0.000 -0.000  0.000
      -0.000  0.000  1.000 -0.000  0.000
      -0.000  0.000  0.000  1.000  0.000
       1.000  0.000  0.000  0.000 -0.000
       0.000 -0.000 -0.000 -0.000  1.000
     occupation matrix ns (before diag.):
       0.952 -0.000 -0.000  0.000  0.000
      -0.000  0.978 -0.000  0.000  0.000
      -0.000 -0.000  0.978  0.000  0.000
       0.000  0.000  0.000  0.852 -0.000
       0.000  0.000  0.000 -0.000  0.985
     ------------------------ ATOM   21 ------------------------
     Tr[ns( 21)] (up, down, total) =   4.74397  4.54971  9.29368
     Atomic magnetic moment for atom  21 =   0.19426
     SPIN  1
     eigenvalues:
       0.852  0.952  0.978  0.978  0.985
     eigenvectors (columns):
      -0.000  1.000 -0.000 -0.000  0.000
      -0.000  0.000  1.000 -0.000  0.000
      -0.000  0.000  0.000  1.000  0.000
       1.000  0.000  0.000  0.000 -0.000
       0.000 -0.000 -0.000 -0.000  1.000
     occupation matrix ns (before diag.):
       0.952 -0.000 -0.000  0.000  0.000
      -0.000  0.978 -0.000  0.000  0.000
      -0.000 -0.000  0.978  0.000  0.000
       0.000  0.000  0.000  0.852 -0.000
       0.000  0.000  0.000 -0.000  0.985
     SPIN  2
     eigenvalues:
       0.665  0.947  0.977  0.977  0.984
     eigenvectors (columns):
       0.000  1.000 -0.000 -0.000  0.000
      -0.000  0.000  0.000  1.000  0.000
      -0.000  0.000  1.000 -0.000  0.000
       1.000 -0.000  0.000  0.000 -0.000
       0.000 -0.000 -0.000 -0.000  1.000
     occupation matrix ns (before diag.):
       0.947 -0.000 -0.000 -0.000  0.000
      -0.000  0.977 -0.000  0.000  0.000
      -0.000 -0.000  0.977  0.000  0.000
      -0.000  0.000  0.000  0.665 -0.000
       0.000  0.000  0.000 -0.000  0.984
     ------------------------ ATOM   23 ------------------------
     Tr[ns( 23)] (up, down, total) =   4.74397  4.54971  9.29368
     Atomic magnetic moment for atom  23 =   0.19426
     SPIN  1
     eigenvalues:
       0.852  0.952  0.978  0.978  0.985
     eigenvectors (columns):
      -0.000  1.000 -0.000 -0.000  0.000
      -0.000  0.000  0.307  0.952  0.000
      -0.000  0.000  0.952 -0.307  0.000
       1.000  0.000  0.000  0.000 -0.000
       0.000 -0.000 -0.000 -0.000  1.000
     occupation matrix ns (before diag.):
       0.952 -0.000 -0.000  0.000  0.000
      -0.000  0.978 -0.000  0.000  0.000
      -0.000 -0.000  0.978  0.000  0.000
       0.000  0.000  0.000  0.852 -0.000
       0.000  0.000  0.000 -0.000  0.985
     SPIN  2
     eigenvalues:
       0.665  0.947  0.977  0.977  0.984
     eigenvectors (columns):
      -0.000  1.000 -0.000 -0.000  0.000
      -0.000  0.000  0.284  0.959  0.000
      -0.000  0.000  0.959 -0.284  0.000
       1.000  0.000  0.000  0.000 -0.000
       0.000 -0.000 -0.000 -0.000  1.000
     occupation matrix ns (before diag.):
       0.947 -0.000 -0.000  0.000  0.000
      -0.000  0.977 -0.000  0.000  0.000
      -0.000 -0.000  0.977  0.000  0.000
       0.000  0.000  0.000  0.665 -0.000
       0.000  0.000  0.000 -0.000  0.984
     ------------------------ ATOM   24 ------------------------
     Tr[ns( 24)] (up, down, total) =   4.54971  4.74397  9.29368
     Atomic magnetic moment for atom  24 =  -0.19426
     SPIN  1
     eigenvalues:
       0.665  0.947  0.977  0.977  0.984
     eigenvectors (columns):
      -0.000  1.000 -0.000 -0.000  0.000
      -0.000  0.000  0.323  0.946  0.000
      -0.000  0.000  0.946 -0.323  0.000
       1.000  0.000  0.000  0.000 -0.000
       0.000 -0.000 -0.000 -0.000  1.000
     occupation matrix ns (before diag.):
       0.947 -0.000 -0.000  0.000  0.000
      -0.000  0.977 -0.000  0.000  0.000
      -0.000 -0.000  0.977  0.000  0.000
       0.000  0.000  0.000  0.665 -0.000
       0.000  0.000  0.000 -0.000  0.984
     SPIN  2
     eigenvalues:
       0.852  0.952  0.978  0.978  0.985
     eigenvectors (columns):
      -0.000  1.000 -0.000 -0.000  0.000
      -0.000  0.000  0.308  0.951  0.000
      -0.000  0.000  0.951 -0.308  0.000
       1.000  0.000  0.000  0.000 -0.000
       0.000 -0.000 -0.000 -0.000  1.000
     occupation matrix ns (before diag.):
       0.952 -0.000 -0.000  0.000  0.000
      -0.000  0.978 -0.000  0.000  0.000
      -0.000 -0.000  0.978  0.000  0.000
       0.000  0.000  0.000  0.852 -0.000
       0.000  0.000  0.000 -0.000  0.985

     Number of occupied Hubbard levels =   74.3494

     Atomic wfc used for Hubbard projectors are orthogonalized

     Starting wfcs are  408 randomized atomic wfcs

     Band Structure Calculation
     Davidson diagonalization with overlap

     Computing kpt #:     1  of    12
     total cpu time spent up to now is      115.2 secs

     Computing kpt #:     2  of    12
     total cpu time spent up to now is      201.9 secs

     Computing kpt #:     3  of    12
     total cpu time spent up to now is      298.4 secs

     Computing kpt #:     4  of    12
     c_bands:  1 eigenvalues not converged
     total cpu time spent up to now is      408.2 secs

     Computing kpt #:     5  of    12
     total cpu time spent up to now is      505.5 secs

     Computing kpt #:     6  of    12
     total cpu time spent up to now is      608.6 secs

     Computing kpt #:     7  of    12
     total cpu time spent up to now is      704.5 secs

     Computing kpt #:     8  of    12
     total cpu time spent up to now is      791.9 secs

     Computing kpt #:     9  of    12
     total cpu time spent up to now is      888.3 secs

     Computing kpt #:    10  of    12
     c_bands:  1 eigenvalues not converged
     total cpu time spent up to now is      998.5 secs

     Computing kpt #:    11  of    12
     total cpu time spent up to now is     1096.4 secs

     Computing kpt #:    12  of    12
     total cpu time spent up to now is     1199.2 secs

     ethr =  2.02E-12,  avg # of iterations = 80.4

     total cpu time spent up to now is     1199.2 secs

     End of band structure calculation

 ------ SPIN UP ------------


          k = 0.1250 0.1250 0.0820 ( 35348 PWs)   bands (ev):

  -100.5254-100.5254-100.5253-100.5253-100.2265-100.2265-100.2264-100.2264
  -100.0745-100.0745-100.0743-100.0743 -58.5531 -58.5531 -58.5531 -58.5531
   -58.5530 -58.5530 -58.5530 -58.5530 -58.2090 -58.2090 -58.2090 -58.2090
   -58.2090 -58.2090 -58.2090 -58.2090 -58.1363 -58.1363 -58.1361 -58.1361
   -58.0289 -58.0289 -58.0288 -58.0288 -57.8637 -57.8637 -57.8636 -57.8636
   -57.8133 -57.8133 -57.8133 -57.8133 -57.8130 -57.8130 -57.8130 -57.8130
   -30.1339 -30.1173 -30.1173 -30.1012 -15.2541 -15.2467 -15.1198 -15.1198
   -15.1140 -15.1140 -15.0141 -15.0084 -10.9372 -10.9372 -10.9196 -10.8750
   -10.8699 -10.6270 -10.6270 -10.3702 -10.2620 -10.2517 -10.2308 -10.2308
    -7.7431  -7.0537  -7.0537  -6.9306  -6.9306  -6.7412  -6.7218  -6.6319
    -6.4877  -6.4862  -6.4861  -6.2276  -6.1913  -6.1913  -6.1700  -6.1699
    -6.1623  -6.0729  -6.0531  -6.0232  -5.9626  -5.9626  -5.7398  -5.6658
    -0.9739  -0.9581  -0.9172  -0.8893  -0.6101  -0.6089  -0.6059  -0.6059
    -0.4436  -0.4408  -0.4408  -0.4034  -0.2871  -0.2871  -0.1972  -0.1972
    -0.1356  -0.1288  -0.0539  -0.0399   0.0977   0.0977   0.1115   0.1115
     3.0702   3.6769   4.1392   4.1393   4.4080   4.4081   4.7298   4.8108
     4.8650   5.3003   5.3538   5.4175   5.4233   5.5296   5.5297   5.5672
     5.5672   5.6813   5.6904   5.7152   5.7153   5.7228   5.7532   5.8239
     5.8240   6.0501   6.0501   6.1290   6.1426   6.3083   6.3083   6.4133
     6.4133   6.4840   6.4873   6.6482   6.7428   6.7428   6.9947   7.0187
     7.0187   7.0323   7.0482   7.0590   7.1481   7.1481   7.2575   7.2575
     7.3209   7.3209   7.3979   7.4717   7.4717   7.5041   7.5691   7.5850
     7.6082   7.6322   7.6424   7.6462   7.6485   7.6486   7.7032   7.8434
     7.8584   7.8584   7.9983   7.9983   8.0924   8.0924   8.0928   8.2069
     8.2069   8.3163   8.4801   8.4814   8.4814   8.4999   8.5451   8.6054
     8.6634   8.6713   8.7444   8.8063   8.8178   8.8178   8.8471   8.8471
     8.8860   8.9046   8.9047   8.9450   8.9995   9.0587   9.0625   9.0627
     9.1029   9.1083   9.1514   9.2161   9.2346   9.2346   9.2513   9.2914
     9.3174   9.3349   9.3563   9.4261   9.4261   9.4476   9.5123   9.5289
     9.5337   9.5799   9.5799   9.6557   9.6557  10.0195  10.0195  10.0830
    10.2680  10.2681  10.3551  10.3551  10.6772  10.7357  10.7357  10.7610
    10.7784  10.8533  12.7396  12.7798  12.7798  12.8163  13.2652  13.4028
    13.8396  13.8411  13.9846  14.0414  14.3272  15.1161  15.1161  15.1457
    15.1458  15.2649  15.2942  15.4872  15.4873  15.8051  15.9899  16.2580
    16.3223  16.3694  16.3709  16.4035  16.4268  16.4268  16.4682  16.4874
    16.4874  16.5617  16.5617  16.6822  16.6822  16.8661  16.9210  17.1401
    17.1401  17.2635  17.3101  17.3101  17.5897  17.7024  17.7038  17.7038
    17.7390  17.7908

     occupation numbers 
     1.0000   1.0000   1.0000   1.0000   1.0000   1.0000   1.0000   1.0000
     1.0000   1.0000   1.0000   1.0000   1.0000   1.0000   1.0000   1.0000
     1.0000   1.0000   1.0000   1.0000   1.0000   1.0000   1.0000   1.0000
     1.0000   1.0000   1.0000   1.0000   1.0000   1.0000   1.0000   1.0000
     1.0000   1.0000   1.0000   1.0000   1.0000   1.0000   1.0000   1.0000
     1.0000   1.0000   1.0000   1.0000   1.0000   1.0000   1.0000   1.0000
     1.0000   1.0000   1.0000   1.0000   1.0000   1.0000   1.0000   1.0000
     1.0000   1.0000   1.0000   1.0000   1.0000   1.0000   1.0000   1.0000
     1.0000   1.0000   1.0000   1.0000   1.0000   1.0000   1.0000   1.0000
     1.0000   1.0000   1.0000   1.0000   1.0000   1.0000   1.0000   1.0000
     1.0000   1.0000   1.0000   1.0000   1.0000   1.0000   1.0000   1.0000
     1.0000   1.0000   1.0000   1.0000   1.0000   1.0000   1.0000   1.0000
     1.0000   1.0000   1.0000   1.0000   1.0000   1.0000   1.0000   1.0000
     1.0000   1.0000   1.0000   1.0000   1.0000   1.0000   1.0000   1.0000
     1.0000   1.0000   1.0000   1.0000   1.0000   1.0000   1.0000   1.0000
     1.0000   1.0000   1.0000   1.0000   1.0000   1.0000   1.0000   1.0000
     1.0000   1.0000   1.0000   1.0000   1.0000   1.0000   1.0000   1.0000
     1.0000   1.0000   1.0000   1.0000   1.0000   1.0000   1.0000   1.0000
     1.0000   1.0000   1.0000   1.0000   1.0000   1.0000   1.0000   1.0000
     1.0000   1.0000   1.0000   1.0000   1.0000   1.0000   1.0000   1.0000
     1.0000   1.0000   1.0000   1.0000   1.0000   1.0000   1.0000   1.0000
     1.0000   1.0000   1.0000   1.0000   1.0000   1.0000   1.0000   1.0000
     1.0000   1.0000   1.0000   1.0000   1.0000   1.0000   1.0000   1.0000
     1.0000   1.0000   1.0000   1.0000   1.0000   1.0000   1.0000   1.0000
     1.0000   1.0000   1.0000   1.0000   1.0000   1.0000   1.0000   1.0000
     1.0000   1.0000   1.0000   1.0000   1.0000   1.0000   1.0000   1.0000
     1.0000   1.0000   1.0000   1.0000   1.0000   1.0000   1.0000   1.0000
     1.0000   1.0000   1.0000   1.0000   1.0000   1.0000   1.0000   1.0000
     1.0000   1.0000   1.0000   1.0000   1.0000   1.0000   1.0000   1.0000
     1.0000   1.0000   1.0000   1.0000   1.0000   1.0000   1.0000   1.0000
     1.0000   1.0000   1.0000   1.0000   1.0000   1.0000   1.0012   1.0023
     0.5341   0.1215   0.0000   0.0000   0.0000   0.0000   0.0000   0.0000
     0.0000   0.0000   0.0000   0.0000   0.0000   0.0000   0.0000   0.0000
     0.0000   0.0000   0.0000   0.0000   0.0000   0.0000   0.0000   0.0000
     0.0000   0.0000   0.0000   0.0000   0.0000   0.0000   0.0000   0.0000
     0.0000   0.0000   0.0000   0.0000   0.0000   0.0000   0.0000   0.0000
     0.0000   0.0000   0.0000   0.0000   0.0000   0.0000   0.0000   0.0000
     0.0000   0.0000

          k = 0.1250 0.1250 0.2459 ( 35338 PWs)   bands (ev):

  -100.5254-100.5254-100.5253-100.5253-100.2265-100.2265-100.2264-100.2264
  -100.0745-100.0745-100.0743-100.0743 -58.5531 -58.5531 -58.5531 -58.5531
   -58.5530 -58.5530 -58.5530 -58.5530 -58.2090 -58.2090 -58.2090 -58.2090
   -58.2090 -58.2090 -58.2090 -58.2090 -58.1363 -58.1363 -58.1361 -58.1361
   -58.0289 -58.0289 -58.0288 -58.0288 -57.8637 -57.8637 -57.8636 -57.8636
   -57.8133 -57.8133 -57.8133 -57.8133 -57.8130 -57.8130 -57.8130 -57.8130
   -30.1339 -30.1173 -30.1173 -30.1012 -15.2564 -15.2443 -15.1215 -15.1215
   -15.1123 -15.1123 -15.0154 -15.0071 -10.9372 -10.9372 -10.9197 -10.8750
   -10.8699 -10.6271 -10.6271 -10.3702 -10.2620 -10.2517 -10.2308 -10.2308
    -7.7424  -7.0604  -7.0604  -6.9298  -6.9298  -6.7420  -6.7218  -6.6326
    -6.4877  -6.4255  -6.4255  -6.2614  -6.2614  -6.2276  -6.1901  -6.1901
    -6.1423  -6.0759  -6.0728  -6.0228  -5.9270  -5.9269  -5.7361  -5.6664
    -0.9755  -0.9566  -0.9138  -0.8917  -0.5820  -0.5820  -0.5730  -0.5726
    -0.4849  -0.4658  -0.4658  -0.4419  -0.2848  -0.2848  -0.2001  -0.2001
    -0.1370  -0.1273  -0.0565  -0.0369   0.0974   0.0974   0.1118   0.1118
     3.0797   3.6639   4.1426   4.1427   4.4058   4.4058   4.7498   4.8108
     4.8650   5.2968   5.3541   5.4039   5.4393   5.5276   5.5276   5.5689
     5.5689   5.6811   5.7083   5.7277   5.7277   5.7309   5.7518   5.8137
     5.8137   6.0533   6.0533   6.1315   6.1429   6.3165   6.3165   6.4519
     6.4519   6.4850   6.4886   6.6482   6.7378   6.7378   6.8972   6.9885
     6.9886   6.9903   7.0026   7.0334   7.0893   7.0894   7.2271   7.2271
     7.3368   7.3368   7.3877   7.4528   7.4528   7.5025   7.5590   7.5801
     7.5978   7.6376   7.6528   7.6598   7.6781   7.6781   7.8073   7.8296
     7.8296   7.9681   7.9681   8.0637   8.1136   8.1334   8.1334   8.2927
     8.2927   8.3497   8.4512   8.5425   8.5425   8.5684   8.6162   8.6784
     8.6911   8.7389   8.7741   8.8116   8.8116   8.8301   8.8478   8.8524
     8.8524   8.8584   8.8805   8.9388   8.9389   8.9400   9.0221   9.0654
     9.0656   9.0710   9.0959   9.1054   9.1054   9.1500   9.2372   9.2533
     9.2727   9.3039   9.3560   9.4010   9.4217   9.4217   9.5455   9.5506
     9.5819   9.6092   9.6092   9.6913   9.6913  10.0070  10.0070  10.1624
    10.2303  10.2304  10.3603  10.3604  10.6742  10.7063  10.7064  10.7640
    10.7774  10.8514  12.7408  12.8152  12.8176  12.8176  13.4252  13.6127
    13.8056  13.8549  13.9278  14.1037  14.2476  14.9819  14.9819  15.1208
    15.2257  15.2257  15.4009  15.4397  15.4397  15.7043  15.8037  15.8983
    15.9550  16.4127  16.4252  16.4252  16.4857  16.4916  16.4916  16.4950
    16.5227  16.5227  16.6080  16.6597  16.6597  16.7710  17.1205  17.1205
    17.2105  17.3009  17.3278  17.3624  17.3624  17.6723  17.7243  17.7628
    17.7628  17.8705

     occupation numbers 
     1.0000   1.0000   1.0000   1.0000   1.0000   1.0000   1.0000   1.0000
     1.0000   1.0000   1.0000   1.0000   1.0000   1.0000   1.0000   1.0000
     1.0000   1.0000   1.0000   1.0000   1.0000   1.0000   1.0000   1.0000
     1.0000   1.0000   1.0000   1.0000   1.0000   1.0000   1.0000   1.0000
     1.0000   1.0000   1.0000   1.0000   1.0000   1.0000   1.0000   1.0000
     1.0000   1.0000   1.0000   1.0000   1.0000   1.0000   1.0000   1.0000
     1.0000   1.0000   1.0000   1.0000   1.0000   1.0000   1.0000   1.0000
     1.0000   1.0000   1.0000   1.0000   1.0000   1.0000   1.0000   1.0000
     1.0000   1.0000   1.0000   1.0000   1.0000   1.0000   1.0000   1.0000
     1.0000   1.0000   1.0000   1.0000   1.0000   1.0000   1.0000   1.0000
     1.0000   1.0000   1.0000   1.0000   1.0000   1.0000   1.0000   1.0000
     1.0000   1.0000   1.0000   1.0000   1.0000   1.0000   1.0000   1.0000
     1.0000   1.0000   1.0000   1.0000   1.0000   1.0000   1.0000   1.0000
     1.0000   1.0000   1.0000   1.0000   1.0000   1.0000   1.0000   1.0000
     1.0000   1.0000   1.0000   1.0000   1.0000   1.0000   1.0000   1.0000
     1.0000   1.0000   1.0000   1.0000   1.0000   1.0000   1.0000   1.0000
     1.0000   1.0000   1.0000   1.0000   1.0000   1.0000   1.0000   1.0000
     1.0000   1.0000   1.0000   1.0000   1.0000   1.0000   1.0000   1.0000
     1.0000   1.0000   1.0000   1.0000   1.0000   1.0000   1.0000   1.0000
     1.0000   1.0000   1.0000   1.0000   1.0000   1.0000   1.0000   1.0000
     1.0000   1.0000   1.0000   1.0000   1.0000   1.0000   1.0000   1.0000
     1.0000   1.0000   1.0000   1.0000   1.0000   1.0000   1.0000   1.0000
     1.0000   1.0000   1.0000   1.0000   1.0000   1.0000   1.0000   1.0000
     1.0000   1.0000   1.0000   1.0000   1.0000   1.0000   1.0000   1.0000
     1.0000   1.0000   1.0000   1.0000   1.0000   1.0000   1.0000   1.0000
     1.0000   1.0000   1.0000   1.0000   1.0000   1.0000   1.0000   1.0000
     1.0000   1.0000   1.0000   1.0000   1.0000   1.0000   1.0000   1.0000
     1.0000   1.0000   1.0000   1.0000   1.0000   1.0000   1.0000   1.0000
     1.0000   1.0000   1.0000   1.0000   1.0000   1.0000   1.0000   1.0000
     1.0000   1.0000   1.0000   1.0000   1.0000   1.0000   1.0000   1.0000
     1.0000   1.0000   1.0000   1.0000   1.0000   1.0000   1.0025   1.0035
     0.5350   0.3453   0.0000   0.0000   0.0000   0.0000   0.0000   0.0000
     0.0000   0.0000   0.0000   0.0000   0.0000   0.0000   0.0000   0.0000
     0.0000   0.0000   0.0000   0.0000   0.0000   0.0000   0.0000   0.0000
     0.0000   0.0000   0.0000   0.0000   0.0000   0.0000   0.0000   0.0000
     0.0000   0.0000   0.0000   0.0000   0.0000   0.0000   0.0000   0.0000
     0.0000   0.0000   0.0000   0.0000   0.0000   0.0000   0.0000   0.0000
     0.0000   0.0000

          k = 0.1250 0.3750 0.0820 ( 35320 PWs)   bands (ev):

  -100.5254-100.5254-100.5253-100.5253-100.2265-100.2265-100.2264-100.2264
  -100.0745-100.0745-100.0743-100.0743 -58.5531 -58.5531 -58.5531 -58.5531
   -58.5530 -58.5530 -58.5530 -58.5530 -58.2090 -58.2090 -58.2090 -58.2090
   -58.2090 -58.2090 -58.2090 -58.2090 -58.1363 -58.1363 -58.1361 -58.1361
   -58.0289 -58.0289 -58.0288 -58.0288 -57.8637 -57.8637 -57.8636 -57.8636
   -57.8133 -57.8133 -57.8132 -57.8132 -57.8130 -57.8130 -57.8130 -57.8130
   -30.1291 -30.1222 -30.1126 -30.1059 -15.2157 -15.2087 -15.1601 -15.1538
   -15.0894 -15.0836 -15.0456 -15.0398 -10.9183 -10.8916 -10.8409 -10.7660
   -10.7203 -10.7074 -10.5574 -10.4898 -10.4515 -10.4453 -10.2486 -10.2382
    -7.4976  -7.1753  -6.9651  -6.8822  -6.8332  -6.6921  -6.6768  -6.5656
    -6.4178  -6.3998  -6.3881  -6.3682  -6.3430  -6.2742  -6.2445  -6.2183
    -6.1716  -6.1228  -6.1046  -6.0664  -5.9007  -5.8828  -5.8086  -5.7588
    -0.8091  -0.7797  -0.6895  -0.6199  -0.6171  -0.6159  -0.6095  -0.5327
    -0.5002  -0.4941  -0.4569  -0.4352  -0.4218  -0.4094  -0.2511  -0.2158
    -0.2030  -0.1779  -0.1757  -0.1718   0.0103   0.0377   0.0615   0.0849
     3.4392   3.9181   3.9877   4.2462   4.5341   4.6659   4.8919   4.9419
     4.9666   5.1081   5.1331   5.2703   5.3939   5.4147   5.4230   5.4527
     5.4835   5.5880   5.6458   5.6758   5.6989   5.7328   5.7377   5.7641
     5.7787   5.7889   5.8232   6.0256   6.3132   6.3219   6.4678   6.5384
     6.5462   6.5539   6.5678   6.5790   6.6357   6.6871   6.6968   6.7295
     6.8922   6.9598   7.0044   7.0669   7.0874   7.1760   7.2027   7.3459
     7.4140   7.4207   7.4533   7.4683   7.5310   7.5334   7.5604   7.5608
     7.5842   7.6267   7.6452   7.6593   7.7024   7.7108   7.7369   7.7755
     7.8355   8.0133   8.0269   8.1664   8.1864   8.2503   8.3019   8.3269
     8.3408   8.3479   8.4197   8.4289   8.4336   8.4958   8.5097   8.5931
     8.6009   8.6621   8.7289   8.7544   8.7881   8.7949   8.8109   8.8395
     8.8604   8.8948   8.9256   8.9549   8.9748   8.9966   9.0302   9.0512
     9.0617   9.0858   9.1004   9.1113   9.1347   9.1770   9.1992   9.2248
     9.2750   9.2913   9.3088   9.3098   9.3607   9.3958   9.3987   9.4490
     9.5997   9.6380   9.6840   9.8525   9.8840  10.0463  10.0839  10.3281
    10.3619  10.3998  10.4876  10.5079  10.5180  10.5727  10.6709  10.7409
    11.2012  11.4380  12.1728  12.2929  13.0060  13.2689  13.3216  13.7165
    13.7942  13.8642  14.3998  14.4044  14.5586  14.6458  14.9096  14.9921
    15.1787  15.3736  15.4404  15.5194  15.5980  15.7254  15.7813  15.8621
    15.9519  16.0429  16.3186  16.3403  16.3792  16.4232  16.4867  16.6875
    16.7666  16.7836  16.8606  16.9686  17.0944  17.0959  17.1396  17.1932
    17.1994  17.2025  17.2409  17.3939  17.4046  17.4549  17.5049  17.5053
    17.7151  17.7170

     occupation numbers 
     1.0000   1.0000   1.0000   1.0000   1.0000   1.0000   1.0000   1.0000
     1.0000   1.0000   1.0000   1.0000   1.0000   1.0000   1.0000   1.0000
     1.0000   1.0000   1.0000   1.0000   1.0000   1.0000   1.0000   1.0000
     1.0000   1.0000   1.0000   1.0000   1.0000   1.0000   1.0000   1.0000
     1.0000   1.0000   1.0000   1.0000   1.0000   1.0000   1.0000   1.0000
     1.0000   1.0000   1.0000   1.0000   1.0000   1.0000   1.0000   1.0000
     1.0000   1.0000   1.0000   1.0000   1.0000   1.0000   1.0000   1.0000
     1.0000   1.0000   1.0000   1.0000   1.0000   1.0000   1.0000   1.0000
     1.0000   1.0000   1.0000   1.0000   1.0000   1.0000   1.0000   1.0000
     1.0000   1.0000   1.0000   1.0000   1.0000   1.0000   1.0000   1.0000
     1.0000   1.0000   1.0000   1.0000   1.0000   1.0000   1.0000   1.0000
     1.0000   1.0000   1.0000   1.0000   1.0000   1.0000   1.0000   1.0000
     1.0000   1.0000   1.0000   1.0000   1.0000   1.0000   1.0000   1.0000
     1.0000   1.0000   1.0000   1.0000   1.0000   1.0000   1.0000   1.0000
     1.0000   1.0000   1.0000   1.0000   1.0000   1.0000   1.0000   1.0000
     1.0000   1.0000   1.0000   1.0000   1.0000   1.0000   1.0000   1.0000
     1.0000   1.0000   1.0000   1.0000   1.0000   1.0000   1.0000   1.0000
     1.0000   1.0000   1.0000   1.0000   1.0000   1.0000   1.0000   1.0000
     1.0000   1.0000   1.0000   1.0000   1.0000   1.0000   1.0000   1.0000
     1.0000   1.0000   1.0000   1.0000   1.0000   1.0000   1.0000   1.0000
     1.0000   1.0000   1.0000   1.0000   1.0000   1.0000   1.0000   1.0000
     1.0000   1.0000   1.0000   1.0000   1.0000   1.0000   1.0000   1.0000
     1.0000   1.0000   1.0000   1.0000   1.0000   1.0000   1.0000   1.0000
     1.0000   1.0000   1.0000   1.0000   1.0000   1.0000   1.0000   1.0000
     1.0000   1.0000   1.0000   1.0000   1.0000   1.0000   1.0000   1.0000
     1.0000   1.0000   1.0000   1.0000   1.0000   1.0000   1.0000   1.0000
     1.0000   1.0000   1.0000   1.0000   1.0000   1.0000   1.0000   1.0000
     1.0000   1.0000   1.0000   1.0000   1.0000   1.0000   1.0000   1.0000
     1.0000   1.0000   1.0000   1.0000   1.0000   1.0000   1.0000   1.0000
     1.0000   1.0000   1.0000   1.0000   1.0000   1.0000   1.0000   1.0000
     1.0000   1.0000   1.0000   1.0000   1.0000   1.0000   1.0402   1.0407
    -0.0392  -0.0174   0.0000   0.0000   0.0000   0.0000   0.0000   0.0000
     0.0000   0.0000   0.0000   0.0000   0.0000   0.0000   0.0000   0.0000
     0.0000   0.0000   0.0000   0.0000   0.0000   0.0000   0.0000   0.0000
     0.0000   0.0000   0.0000   0.0000   0.0000   0.0000   0.0000   0.0000
     0.0000   0.0000   0.0000   0.0000   0.0000   0.0000   0.0000   0.0000
     0.0000   0.0000   0.0000   0.0000   0.0000   0.0000   0.0000   0.0000
     0.0000   0.0000

          k = 0.1250 0.3750 0.2459 ( 35342 PWs)   bands (ev):

  -100.5254-100.5254-100.5253-100.5253-100.2265-100.2265-100.2264-100.2264
  -100.0745-100.0745-100.0743-100.0743 -58.5531 -58.5531 -58.5531 -58.5531
   -58.5530 -58.5530 -58.5530 -58.5530 -58.2090 -58.2090 -58.2090 -58.2090
   -58.2090 -58.2090 -58.2090 -58.2090 -58.1363 -58.1363 -58.1361 -58.1361
   -58.0289 -58.0289 -58.0288 -58.0288 -57.8637 -57.8637 -57.8636 -57.8636
   -57.8133 -57.8133 -57.8132 -57.8132 -57.8130 -57.8130 -57.8130 -57.8130
   -30.1291 -30.1222 -30.1126 -30.1059 -15.2178 -15.2066 -15.1619 -15.1519
   -15.0909 -15.0820 -15.0470 -15.0385 -10.9183 -10.8916 -10.8410 -10.7660
   -10.7204 -10.7074 -10.5575 -10.4898 -10.4515 -10.4453 -10.2486 -10.2382
    -7.4970  -7.1745  -6.9707  -6.8867  -6.8364  -6.6934  -6.6747  -6.5659
    -6.4162  -6.3724  -6.3578  -6.3433  -6.3326  -6.2758  -6.2513  -6.2028
    -6.1956  -6.1857  -6.1201  -6.1022  -5.8756  -5.8725  -5.7946  -5.7608
    -0.8068  -0.7821  -0.6690  -0.6245  -0.6076  -0.5994  -0.5903  -0.5235
    -0.5063  -0.4898  -0.4749  -0.4624  -0.4386  -0.4214  -0.2416  -0.2056
    -0.1984  -0.1882  -0.1859  -0.1763   0.0101   0.0379   0.0614   0.0846
     3.4490   3.9261   3.9750   4.2395   4.5399   4.6608   4.8917   4.9444
     4.9822   5.1147   5.1265   5.2749   5.3935   5.4115   5.4206   5.4380
     5.4842   5.5766   5.6483   5.6740   5.7001   5.7415   5.7462   5.7709
     5.7842   5.8086   5.8309   6.0314   6.3159   6.3248   6.4740   6.5369
     6.5532   6.5546   6.5727   6.5994   6.6747   6.6882   6.7028   6.7274
     6.8858   6.9144   6.9154   6.9447   7.0764   7.0767   7.1842   7.2330
     7.3893   7.4110   7.4229   7.4380   7.4884   7.5454   7.5601   7.5802
     7.6245   7.6564   7.6581   7.7245   7.7773   7.7897   7.8392   7.8785
     7.9565   7.9733   8.0542   8.1385   8.2401   8.2516   8.3214   8.3571
     8.3889   8.4121   8.4286   8.4388   8.4569   8.4913   8.5398   8.5745
     8.6014   8.6456   8.6512   8.7775   8.8036   8.8404   8.8613   8.8772
     8.8928   8.8952   8.9037   8.9230   8.9551   8.9925   9.0081   9.0415
     9.0574   9.0837   9.0954   9.1094   9.1228   9.1402   9.1668   9.1897
     9.1925   9.2172   9.2860   9.3006   9.3218   9.3303   9.3543   9.4042
     9.6017   9.6353   9.7359   9.8519   9.9521  10.0538  10.0706  10.3079
    10.3436  10.3817  10.4759  10.4936  10.5135  10.5707  10.6699  10.7385
    11.2061  11.4286  12.1760  12.2912  13.0333  13.3029  13.3973  13.7829
    13.9060  13.9967  14.2630  14.5383  14.5993  14.6990  14.8153  14.8468
    15.1903  15.2269  15.4368  15.5240  15.5327  15.6268  15.7390  15.7482
    15.8310  15.8644  16.2128  16.3962  16.4027  16.4698  16.4940  16.5753
    16.5929  16.7639  16.8536  16.8864  16.9850  17.0027  17.0334  17.2030
    17.2289  17.3387  17.3403  17.4655  17.4741  17.5787  17.6908  17.7665
    17.7846  17.8052

     occupation numbers 
     1.0000   1.0000   1.0000   1.0000   1.0000   1.0000   1.0000   1.0000
     1.0000   1.0000   1.0000   1.0000   1.0000   1.0000   1.0000   1.0000
     1.0000   1.0000   1.0000   1.0000   1.0000   1.0000   1.0000   1.0000
     1.0000   1.0000   1.0000   1.0000   1.0000   1.0000   1.0000   1.0000
     1.0000   1.0000   1.0000   1.0000   1.0000   1.0000   1.0000   1.0000
     1.0000   1.0000   1.0000   1.0000   1.0000   1.0000   1.0000   1.0000
     1.0000   1.0000   1.0000   1.0000   1.0000   1.0000   1.0000   1.0000
     1.0000   1.0000   1.0000   1.0000   1.0000   1.0000   1.0000   1.0000
     1.0000   1.0000   1.0000   1.0000   1.0000   1.0000   1.0000   1.0000
     1.0000   1.0000   1.0000   1.0000   1.0000   1.0000   1.0000   1.0000
     1.0000   1.0000   1.0000   1.0000   1.0000   1.0000   1.0000   1.0000
     1.0000   1.0000   1.0000   1.0000   1.0000   1.0000   1.0000   1.0000
     1.0000   1.0000   1.0000   1.0000   1.0000   1.0000   1.0000   1.0000
     1.0000   1.0000   1.0000   1.0000   1.0000   1.0000   1.0000   1.0000
     1.0000   1.0000   1.0000   1.0000   1.0000   1.0000   1.0000   1.0000
     1.0000   1.0000   1.0000   1.0000   1.0000   1.0000   1.0000   1.0000
     1.0000   1.0000   1.0000   1.0000   1.0000   1.0000   1.0000   1.0000
     1.0000   1.0000   1.0000   1.0000   1.0000   1.0000   1.0000   1.0000
     1.0000   1.0000   1.0000   1.0000   1.0000   1.0000   1.0000   1.0000
     1.0000   1.0000   1.0000   1.0000   1.0000   1.0000   1.0000   1.0000
     1.0000   1.0000   1.0000   1.0000   1.0000   1.0000   1.0000   1.0000
     1.0000   1.0000   1.0000   1.0000   1.0000   1.0000   1.0000   1.0000
     1.0000   1.0000   1.0000   1.0000   1.0000   1.0000   1.0000   1.0000
     1.0000   1.0000   1.0000   1.0000   1.0000   1.0000   1.0000   1.0000
     1.0000   1.0000   1.0000   1.0000   1.0000   1.0000   1.0000   1.0000
     1.0000   1.0000   1.0000   1.0000   1.0000   1.0000   1.0000   1.0000
     1.0000   1.0000   1.0000   1.0000   1.0000   1.0000   1.0000   1.0000
     1.0000   1.0000   1.0000   1.0000   1.0000   1.0000   1.0000   1.0000
     1.0000   1.0000   1.0000   1.0000   1.0000   1.0000   1.0000   1.0000
     1.0000   1.0000   1.0000   1.0000   1.0000   1.0000   1.0000   1.0000
     1.0000   1.0000   1.0000   1.0000   1.0000   1.0000   1.0413   1.0425
    -0.0396  -0.0363   0.0000   0.0000   0.0000   0.0000   0.0000   0.0000
     0.0000   0.0000   0.0000   0.0000   0.0000   0.0000   0.0000   0.0000
     0.0000   0.0000   0.0000   0.0000   0.0000   0.0000   0.0000   0.0000
     0.0000   0.0000   0.0000   0.0000   0.0000   0.0000   0.0000   0.0000
     0.0000   0.0000   0.0000   0.0000   0.0000   0.0000   0.0000   0.0000
     0.0000   0.0000   0.0000   0.0000   0.0000   0.0000   0.0000   0.0000
     0.0000   0.0000

          k = 0.3750 0.3750 0.0820 ( 35330 PWs)   bands (ev):

  -100.5254-100.5254-100.5253-100.5253-100.2265-100.2265-100.2264-100.2264
  -100.0745-100.0745-100.0743-100.0743 -58.5531 -58.5531 -58.5531 -58.5531
   -58.5530 -58.5530 -58.5530 -58.5530 -58.2090 -58.2090 -58.2090 -58.2090
   -58.2090 -58.2090 -58.2090 -58.2090 -58.1363 -58.1363 -58.1361 -58.1361
   -58.0289 -58.0289 -58.0288 -58.0288 -57.8637 -57.8637 -57.8636 -57.8636
   -57.8132 -57.8132 -57.8132 -57.8132 -57.8130 -57.8130 -57.8130 -57.8130
   -30.1243 -30.1174 -30.1174 -30.1107 -15.1795 -15.1728 -15.1272 -15.1272
   -15.1210 -15.1210 -15.0798 -15.0738 -10.7644 -10.7499 -10.7499 -10.7420
   -10.7070 -10.6476 -10.6476 -10.5367 -10.4991 -10.4566 -10.4566 -10.4531
    -7.2528  -6.9304  -6.9304  -6.8063  -6.8063  -6.7304  -6.6785  -6.6158
    -6.5863  -6.3969  -6.3969  -6.3822  -6.3402  -6.3060  -6.3060  -6.1706
    -6.1614  -6.1613  -6.1607  -6.1470  -5.8621  -5.8620  -5.8317  -5.8024
    -0.7515  -0.7304  -0.6120  -0.6120  -0.5996  -0.5961  -0.5195  -0.5195
    -0.4970  -0.4970  -0.4524  -0.4307  -0.4068  -0.4068  -0.4062  -0.3870
    -0.3429  -0.2822  -0.0808  -0.0808  -0.0169  -0.0169   0.0277   0.0876
     3.7971   4.2680   4.2680   4.3280   4.6098   4.6098   4.7760   4.9722
     5.0023   5.0129   5.1921   5.1921   5.2333   5.3618   5.3919   5.3919
     5.4322   5.5636   5.6935   5.6935   5.7580   5.7698   5.7880   5.7881
     5.8391   5.8764   5.8764   5.9303   5.9303   6.0725   6.2270   6.2578
     6.2791   6.4873   6.4873   6.5050   6.6722   6.6722   6.6985   6.7622
     6.8146   7.0072   7.0498   7.0498   7.0698   7.0698   7.1637   7.2149
     7.3304   7.3305   7.3631   7.3999   7.5160   7.5160   7.5682   7.5699
     7.6075   7.6077   7.6078   7.6378   7.8086   7.8703   7.8703   7.9442
     8.0921   8.1045   8.1045   8.1325   8.1325   8.2074   8.2111   8.2268
     8.3183   8.3183   8.4599   8.5543   8.5543   8.5875   8.6393   8.6564
     8.6564   8.6695   8.7058   8.7195   8.7923   8.7923   8.8172   8.8661
     8.8741   8.8797   8.8797   8.8858   8.8979   9.0225   9.0387   9.0388
     9.0540   9.0815   9.0816   9.1098   9.1604   9.1605   9.1661   9.1746
     9.1746   9.2200   9.2567   9.2567   9.3123   9.3614   9.3614   9.4236
     9.5003   9.5197   9.5198   9.6542  10.3016  10.3017  10.3459  10.3979
    10.5031  10.6099  10.6574  10.6575  10.7917  10.7967  10.8569  10.8570
    11.3349  11.3349  11.8192  11.9399  13.4132  13.4132  13.4309  13.7125
    14.2036  14.3260  14.4170  14.6702  14.6702  14.8135  14.8135  14.9542
    15.0752  15.0752  15.2962  15.3104  15.4653  15.6881  15.9512  16.0068
    16.2133  16.2134  16.3902  16.3903  16.4249  16.4249  16.5173  16.7173
    16.7173  16.7203  16.9018  16.9067  16.9694  16.9857  16.9857  17.2198
    17.2491  17.2491  17.2520  17.3029  17.3029  17.3120  17.3183  17.3238
    17.3492  17.4397

     occupation numbers 
     1.0000   1.0000   1.0000   1.0000   1.0000   1.0000   1.0000   1.0000
     1.0000   1.0000   1.0000   1.0000   1.0000   1.0000   1.0000   1.0000
     1.0000   1.0000   1.0000   1.0000   1.0000   1.0000   1.0000   1.0000
     1.0000   1.0000   1.0000   1.0000   1.0000   1.0000   1.0000   1.0000
     1.0000   1.0000   1.0000   1.0000   1.0000   1.0000   1.0000   1.0000
     1.0000   1.0000   1.0000   1.0000   1.0000   1.0000   1.0000   1.0000
     1.0000   1.0000   1.0000   1.0000   1.0000   1.0000   1.0000   1.0000
     1.0000   1.0000   1.0000   1.0000   1.0000   1.0000   1.0000   1.0000
     1.0000   1.0000   1.0000   1.0000   1.0000   1.0000   1.0000   1.0000
     1.0000   1.0000   1.0000   1.0000   1.0000   1.0000   1.0000   1.0000
     1.0000   1.0000   1.0000   1.0000   1.0000   1.0000   1.0000   1.0000
     1.0000   1.0000   1.0000   1.0000   1.0000   1.0000   1.0000   1.0000
     1.0000   1.0000   1.0000   1.0000   1.0000   1.0000   1.0000   1.0000
     1.0000   1.0000   1.0000   1.0000   1.0000   1.0000   1.0000   1.0000
     1.0000   1.0000   1.0000   1.0000   1.0000   1.0000   1.0000   1.0000
     1.0000   1.0000   1.0000   1.0000   1.0000   1.0000   1.0000   1.0000
     1.0000   1.0000   1.0000   1.0000   1.0000   1.0000   1.0000   1.0000
     1.0000   1.0000   1.0000   1.0000   1.0000   1.0000   1.0000   1.0000
     1.0000   1.0000   1.0000   1.0000   1.0000   1.0000   1.0000   1.0000
     1.0000   1.0000   1.0000   1.0000   1.0000   1.0000   1.0000   1.0000
     1.0000   1.0000   1.0000   1.0000   1.0000   1.0000   1.0000   1.0000
     1.0000   1.0000   1.0000   1.0000   1.0000   1.0000   1.0000   1.0000
     1.0000   1.0000   1.0000   1.0000   1.0000   1.0000   1.0000   1.0000
     1.0000   1.0000   1.0000   1.0000   1.0000   1.0000   1.0000   1.0000
     1.0000   1.0000   1.0000   1.0000   1.0000   1.0000   1.0000   1.0000
     1.0000   1.0000   1.0000   1.0000   1.0000   1.0000   1.0000   1.0000
     1.0000   1.0000   1.0000   1.0000   1.0000   1.0000   1.0000   1.0000
     1.0000   1.0000   1.0000   1.0000   1.0000   1.0000   1.0000   1.0000
     1.0000   1.0000   1.0000   1.0000   1.0000   1.0000   1.0000   1.0000
     1.0000   1.0000   1.0000   1.0000   1.0000   1.0000   1.0000   1.0000
     1.0000   1.0000   1.0000   1.0000   1.0000   1.0000   0.6435   0.6252
    -0.0092  -0.0000   0.0000   0.0000   0.0000   0.0000   0.0000   0.0000
     0.0000   0.0000   0.0000   0.0000   0.0000   0.0000   0.0000   0.0000
     0.0000   0.0000   0.0000   0.0000   0.0000   0.0000   0.0000   0.0000
     0.0000   0.0000   0.0000   0.0000   0.0000   0.0000   0.0000   0.0000
     0.0000   0.0000   0.0000   0.0000   0.0000   0.0000   0.0000   0.0000
     0.0000   0.0000   0.0000   0.0000   0.0000   0.0000   0.0000   0.0000
     0.0000   0.0000

          k = 0.3750 0.3750 0.2459 ( 35313 PWs)   bands (ev):

  -100.5254-100.5254-100.5253-100.5253-100.2265-100.2265-100.2264-100.2264
  -100.0745-100.0745-100.0743-100.0743 -58.5531 -58.5531 -58.5531 -58.5531
   -58.5530 -58.5530 -58.5530 -58.5530 -58.2090 -58.2090 -58.2090 -58.2090
   -58.2090 -58.2090 -58.2090 -58.2090 -58.1363 -58.1363 -58.1361 -58.1361
   -58.0289 -58.0289 -58.0288 -58.0288 -57.8637 -57.8637 -57.8636 -57.8636
   -57.8132 -57.8132 -57.8132 -57.8132 -57.8130 -57.8130 -57.8130 -57.8130
   -30.1243 -30.1174 -30.1174 -30.1107 -15.1814 -15.1709 -15.1289 -15.1289
   -15.1193 -15.1193 -15.0813 -15.0723 -10.7645 -10.7499 -10.7499 -10.7420
   -10.7070 -10.6477 -10.6477 -10.5368 -10.4991 -10.4566 -10.4566 -10.4531
    -7.2522  -6.9288  -6.9288  -6.8106  -6.8106  -6.7347  -6.6806  -6.6103
    -6.5863  -6.3970  -6.3970  -6.3822  -6.3402  -6.2828  -6.2828  -6.1844
    -6.1843  -6.1706  -6.1611  -6.1419  -5.8595  -5.8594  -5.8324  -5.8062
    -0.7466  -0.7353  -0.6070  -0.6070  -0.5855  -0.5820  -0.5224  -0.5224
    -0.4861  -0.4861  -0.4685  -0.4463  -0.4209  -0.4209  -0.4007  -0.3925
    -0.3332  -0.2911  -0.0691  -0.0691  -0.0285  -0.0285   0.0363   0.0796
     3.8079   4.2778   4.2778   4.3137   4.6004   4.6004   4.7884   4.9722
     4.9892   5.0129   5.1906   5.1906   5.2469   5.3618   5.3904   5.3904
     5.4322   5.5489   5.6969   5.6969   5.7698   5.7783   5.7783   5.7797
     5.8339   5.8846   5.8846   5.9402   5.9402   6.0729   6.2208   6.2697
     6.2793   6.4864   6.4864   6.5047   6.7051   6.7113   6.7113   6.7622
     6.8908   6.9251   6.9717   6.9717   7.0292   7.0839   7.0839   7.1827
     7.1828   7.2135   7.2693   7.3011   7.5183   7.5183   7.5712   7.6036
     7.7090   7.8016   7.8016   7.8401   7.9041   7.9478   7.9504   7.9504
     8.0338   8.0742   8.0742   8.1472   8.1472   8.2269   8.2317   8.2317
     8.2859   8.2865   8.4728   8.5118   8.5976   8.6015   8.6015   8.6465
     8.6465   8.7072   8.7354   8.7698   8.8209   8.8271   8.8449   8.8641
     8.8642   8.8878   8.8954   8.8954   8.9029   9.0296   9.0508   9.0509
     9.0677   9.0805   9.0805   9.1218   9.1227   9.1227   9.1562   9.1685
     9.1758   9.1926   9.2174   9.2174   9.2497   9.2920   9.3193   9.3193
     9.3827   9.4967   9.4967   9.7242  10.2927  10.2929  10.3362  10.3944
    10.4752  10.6474  10.6475  10.6486  10.7857  10.7914  10.8672  10.8673
    11.3294  11.3295  11.8224  11.9376  13.4476  13.4476  13.5401  13.7440
    14.2316  14.3644  14.3935  14.7021  14.7021  14.7994  14.7994  14.9412
    15.0623  15.0623  15.2266  15.3413  15.4088  15.8822  15.9103  15.9246
    16.0940  16.1531  16.1531  16.4105  16.4105  16.4940  16.4940  16.6123
    16.6123  16.6683  16.6738  16.7098  16.8836  16.8836  17.0140  17.0140
    17.0320  17.0887  17.2931  17.3681  17.4067  17.4195  17.4195  17.4536
    17.4690  17.6622

     occupation numbers 
     1.0000   1.0000   1.0000   1.0000   1.0000   1.0000   1.0000   1.0000
     1.0000   1.0000   1.0000   1.0000   1.0000   1.0000   1.0000   1.0000
     1.0000   1.0000   1.0000   1.0000   1.0000   1.0000   1.0000   1.0000
     1.0000   1.0000   1.0000   1.0000   1.0000   1.0000   1.0000   1.0000
     1.0000   1.0000   1.0000   1.0000   1.0000   1.0000   1.0000   1.0000
     1.0000   1.0000   1.0000   1.0000   1.0000   1.0000   1.0000   1.0000
     1.0000   1.0000   1.0000   1.0000   1.0000   1.0000   1.0000   1.0000
     1.0000   1.0000   1.0000   1.0000   1.0000   1.0000   1.0000   1.0000
     1.0000   1.0000   1.0000   1.0000   1.0000   1.0000   1.0000   1.0000
     1.0000   1.0000   1.0000   1.0000   1.0000   1.0000   1.0000   1.0000
     1.0000   1.0000   1.0000   1.0000   1.0000   1.0000   1.0000   1.0000
     1.0000   1.0000   1.0000   1.0000   1.0000   1.0000   1.0000   1.0000
     1.0000   1.0000   1.0000   1.0000   1.0000   1.0000   1.0000   1.0000
     1.0000   1.0000   1.0000   1.0000   1.0000   1.0000   1.0000   1.0000
     1.0000   1.0000   1.0000   1.0000   1.0000   1.0000   1.0000   1.0000
     1.0000   1.0000   1.0000   1.0000   1.0000   1.0000   1.0000   1.0000
     1.0000   1.0000   1.0000   1.0000   1.0000   1.0000   1.0000   1.0000
     1.0000   1.0000   1.0000   1.0000   1.0000   1.0000   1.0000   1.0000
     1.0000   1.0000   1.0000   1.0000   1.0000   1.0000   1.0000   1.0000
     1.0000   1.0000   1.0000   1.0000   1.0000   1.0000   1.0000   1.0000
     1.0000   1.0000   1.0000   1.0000   1.0000   1.0000   1.0000   1.0000
     1.0000   1.0000   1.0000   1.0000   1.0000   1.0000   1.0000   1.0000
     1.0000   1.0000   1.0000   1.0000   1.0000   1.0000   1.0000   1.0000
     1.0000   1.0000   1.0000   1.0000   1.0000   1.0000   1.0000   1.0000
     1.0000   1.0000   1.0000   1.0000   1.0000   1.0000   1.0000   1.0000
     1.0000   1.0000   1.0000   1.0000   1.0000   1.0000   1.0000   1.0000
     1.0000   1.0000   1.0000   1.0000   1.0000   1.0000   1.0000   1.0000
     1.0000   1.0000   1.0000   1.0000   1.0000   1.0000   1.0000   1.0000
     1.0000   1.0000   1.0000   1.0000   1.0000   1.0000   1.0000   1.0000
     1.0000   1.0000   1.0000   1.0000   1.0000   1.0000   1.0000   1.0000
     1.0000   1.0000   1.0000   1.0000   1.0000   1.0000   0.5930   0.5470
    -0.0090  -0.0001   0.0000   0.0000   0.0000   0.0000   0.0000   0.0000
     0.0000   0.0000   0.0000   0.0000   0.0000   0.0000   0.0000   0.0000
     0.0000   0.0000   0.0000   0.0000   0.0000   0.0000   0.0000   0.0000
     0.0000   0.0000   0.0000   0.0000   0.0000   0.0000   0.0000   0.0000
     0.0000   0.0000   0.0000   0.0000   0.0000   0.0000   0.0000   0.0000
     0.0000   0.0000   0.0000   0.0000   0.0000   0.0000   0.0000   0.0000
     0.0000   0.0000

 ------ SPIN DOWN ----------


          k = 0.1250 0.1250 0.0820 ( 35348 PWs)   bands (ev):

  -100.5254-100.5254-100.5253-100.5253-100.2265-100.2265-100.2264-100.2264
  -100.0745-100.0745-100.0743-100.0743 -58.5530 -58.5530 -58.5530 -58.5530
   -58.5530 -58.5530 -58.5530 -58.5530 -58.2090 -58.2090 -58.2090 -58.2090
   -58.2089 -58.2089 -58.2089 -58.2089 -58.1363 -58.1363 -58.1361 -58.1361
   -58.0289 -58.0289 -58.0288 -58.0288 -57.8637 -57.8637 -57.8636 -57.8636
   -57.8133 -57.8133 -57.8133 -57.8133 -57.8130 -57.8130 -57.8130 -57.8130
   -30.1339 -30.1173 -30.1173 -30.1012 -15.2541 -15.2467 -15.1198 -15.1198
   -15.1140 -15.1140 -15.0141 -15.0084 -10.9372 -10.9372 -10.9196 -10.8750
   -10.8699 -10.6270 -10.6270 -10.3702 -10.2620 -10.2517 -10.2308 -10.2308
    -7.7431  -7.0537  -7.0537  -6.9306  -6.9306  -6.7412  -6.7218  -6.6319
    -6.4877  -6.4862  -6.4861  -6.2276  -6.1913  -6.1913  -6.1700  -6.1699
    -6.1623  -6.0729  -6.0531  -6.0232  -5.9626  -5.9626  -5.7398  -5.6658
    -0.9739  -0.9581  -0.9172  -0.8893  -0.6101  -0.6089  -0.6059  -0.6059
    -0.4436  -0.4408  -0.4408  -0.4034  -0.2871  -0.2871  -0.1972  -0.1972
    -0.1356  -0.1288  -0.0539  -0.0399   0.0977   0.0977   0.1115   0.1115
     3.0702   3.6769   4.1392   4.1393   4.4080   4.4081   4.7298   4.8108
     4.8650   5.3003   5.3538   5.4175   5.4233   5.5297   5.5297   5.5672
     5.5672   5.6813   5.6904   5.7152   5.7153   5.7228   5.7532   5.8239
     5.8240   6.0501   6.0501   6.1290   6.1426   6.3083   6.3083   6.4133
     6.4133   6.4840   6.4873   6.6482   6.7428   6.7428   6.9947   7.0187
     7.0187   7.0323   7.0482   7.0590   7.1481   7.1481   7.2575   7.2575
     7.3209   7.3209   7.3979   7.4716   7.4717   7.5041   7.5691   7.5850
     7.6082   7.6322   7.6424   7.6462   7.6485   7.6486   7.7032   7.8434
     7.8584   7.8584   7.9983   7.9983   8.0924   8.0924   8.0928   8.2069
     8.2069   8.3163   8.4801   8.4814   8.4814   8.4999   8.5451   8.6054
     8.6634   8.6713   8.7444   8.8063   8.8178   8.8178   8.8471   8.8471
     8.8860   8.9046   8.9047   8.9450   8.9995   9.0587   9.0625   9.0627
     9.1029   9.1083   9.1514   9.2161   9.2346   9.2346   9.2513   9.2914
     9.3174   9.3349   9.3563   9.4261   9.4261   9.4476   9.5123   9.5289
     9.5337   9.5799   9.5799   9.6557   9.6557  10.0195  10.0195  10.0830
    10.2680  10.2681  10.3551  10.3551  10.6772  10.7357  10.7357  10.7610
    10.7784  10.8533  12.7396  12.7798  12.7798  12.8163  13.2652  13.4028
    13.8396  13.8411  13.9846  14.0414  14.3272  15.1161  15.1161  15.1457
    15.1458  15.2649  15.2942  15.4872  15.4873  15.8051  15.9899  16.2580
    16.3223  16.3694  16.3709  16.4035  16.4268  16.4268  16.4682  16.4874
    16.4874  16.5617  16.5617  16.6822  16.6822  16.8661  16.9210  17.1401
    17.1401  17.2635  17.3101  17.3101  17.5897  17.7024  17.7038  17.7038
    17.7390  17.7908

     occupation numbers 
     1.0000   1.0000   1.0000   1.0000   1.0000   1.0000   1.0000   1.0000
     1.0000   1.0000   1.0000   1.0000   1.0000   1.0000   1.0000   1.0000
     1.0000   1.0000   1.0000   1.0000   1.0000   1.0000   1.0000   1.0000
     1.0000   1.0000   1.0000   1.0000   1.0000   1.0000   1.0000   1.0000
     1.0000   1.0000   1.0000   1.0000   1.0000   1.0000   1.0000   1.0000
     1.0000   1.0000   1.0000   1.0000   1.0000   1.0000   1.0000   1.0000
     1.0000   1.0000   1.0000   1.0000   1.0000   1.0000   1.0000   1.0000
     1.0000   1.0000   1.0000   1.0000   1.0000   1.0000   1.0000   1.0000
     1.0000   1.0000   1.0000   1.0000   1.0000   1.0000   1.0000   1.0000
     1.0000   1.0000   1.0000   1.0000   1.0000   1.0000   1.0000   1.0000
     1.0000   1.0000   1.0000   1.0000   1.0000   1.0000   1.0000   1.0000
     1.0000   1.0000   1.0000   1.0000   1.0000   1.0000   1.0000   1.0000
     1.0000   1.0000   1.0000   1.0000   1.0000   1.0000   1.0000   1.0000
     1.0000   1.0000   1.0000   1.0000   1.0000   1.0000   1.0000   1.0000
     1.0000   1.0000   1.0000   1.0000   1.0000   1.0000   1.0000   1.0000
     1.0000   1.0000   1.0000   1.0000   1.0000   1.0000   1.0000   1.0000
     1.0000   1.0000   1.0000   1.0000   1.0000   1.0000   1.0000   1.0000
     1.0000   1.0000   1.0000   1.0000   1.0000   1.0000   1.0000   1.0000
     1.0000   1.0000   1.0000   1.0000   1.0000   1.0000   1.0000   1.0000
     1.0000   1.0000   1.0000   1.0000   1.0000   1.0000   1.0000   1.0000
     1.0000   1.0000   1.0000   1.0000   1.0000   1.0000   1.0000   1.0000
     1.0000   1.0000   1.0000   1.0000   1.0000   1.0000   1.0000   1.0000
     1.0000   1.0000   1.0000   1.0000   1.0000   1.0000   1.0000   1.0000
     1.0000   1.0000   1.0000   1.0000   1.0000   1.0000   1.0000   1.0000
     1.0000   1.0000   1.0000   1.0000   1.0000   1.0000   1.0000   1.0000
     1.0000   1.0000   1.0000   1.0000   1.0000   1.0000   1.0000   1.0000
     1.0000   1.0000   1.0000   1.0000   1.0000   1.0000   1.0000   1.0000
     1.0000   1.0000   1.0000   1.0000   1.0000   1.0000   1.0000   1.0000
     1.0000   1.0000   1.0000   1.0000   1.0000   1.0000   1.0000   1.0000
     1.0000   1.0000   1.0000   1.0000   1.0000   1.0000   1.0000   1.0000
     1.0000   1.0000   1.0000   1.0000   1.0000   1.0000   1.0012   1.0023
     0.5341   0.1212   0.0000   0.0000   0.0000   0.0000   0.0000   0.0000
     0.0000   0.0000   0.0000   0.0000   0.0000   0.0000   0.0000   0.0000
     0.0000   0.0000   0.0000   0.0000   0.0000   0.0000   0.0000   0.0000
     0.0000   0.0000   0.0000   0.0000   0.0000   0.0000   0.0000   0.0000
     0.0000   0.0000   0.0000   0.0000   0.0000   0.0000   0.0000   0.0000
     0.0000   0.0000   0.0000   0.0000   0.0000   0.0000   0.0000   0.0000
     0.0000   0.0000

          k = 0.1250 0.1250 0.2459 ( 35338 PWs)   bands (ev):

  -100.5254-100.5254-100.5253-100.5253-100.2265-100.2265-100.2264-100.2264
  -100.0745-100.0745-100.0743-100.0743 -58.5530 -58.5530 -58.5530 -58.5530
   -58.5530 -58.5530 -58.5530 -58.5530 -58.2090 -58.2090 -58.2090 -58.2090
   -58.2089 -58.2089 -58.2089 -58.2089 -58.1363 -58.1363 -58.1361 -58.1361
   -58.0289 -58.0289 -58.0288 -58.0288 -57.8637 -57.8637 -57.8636 -57.8636
   -57.8133 -57.8133 -57.8133 -57.8133 -57.8130 -57.8130 -57.8130 -57.8130
   -30.1339 -30.1173 -30.1173 -30.1012 -15.2564 -15.2443 -15.1215 -15.1215
   -15.1123 -15.1123 -15.0154 -15.0071 -10.9372 -10.9372 -10.9197 -10.8750
   -10.8699 -10.6271 -10.6271 -10.3702 -10.2620 -10.2517 -10.2308 -10.2308
    -7.7424  -7.0604  -7.0604  -6.9298  -6.9298  -6.7420  -6.7218  -6.6326
    -6.4877  -6.4255  -6.4255  -6.2614  -6.2614  -6.2276  -6.1901  -6.1901
    -6.1423  -6.0759  -6.0728  -6.0228  -5.9270  -5.9269  -5.7361  -5.6664
    -0.9755  -0.9566  -0.9138  -0.8917  -0.5820  -0.5820  -0.5730  -0.5726
    -0.4849  -0.4658  -0.4658  -0.4419  -0.2848  -0.2848  -0.2001  -0.2001
    -0.1370  -0.1273  -0.0565  -0.0369   0.0974   0.0974   0.1118   0.1118
     3.0797   3.6639   4.1426   4.1427   4.4058   4.4058   4.7498   4.8108
     4.8650   5.2968   5.3541   5.4039   5.4393   5.5276   5.5276   5.5689
     5.5689   5.6811   5.7083   5.7277   5.7277   5.7309   5.7518   5.8137
     5.8137   6.0533   6.0533   6.1315   6.1429   6.3165   6.3165   6.4519
     6.4519   6.4850   6.4886   6.6482   6.7378   6.7378   6.8972   6.9885
     6.9886   6.9903   7.0026   7.0334   7.0893   7.0894   7.2271   7.2271
     7.3368   7.3368   7.3877   7.4528   7.4528   7.5025   7.5590   7.5801
     7.5978   7.6376   7.6528   7.6598   7.6781   7.6781   7.8073   7.8296
     7.8296   7.9681   7.9681   8.0637   8.1136   8.1334   8.1334   8.2927
     8.2927   8.3497   8.4512   8.5425   8.5425   8.5684   8.6162   8.6784
     8.6911   8.7389   8.7741   8.8116   8.8116   8.8301   8.8478   8.8524
     8.8524   8.8584   8.8805   8.9388   8.9389   8.9400   9.0221   9.0654
     9.0656   9.0710   9.0959   9.1054   9.1054   9.1500   9.2372   9.2533
     9.2727   9.3039   9.3560   9.4010   9.4217   9.4217   9.5455   9.5506
     9.5819   9.6092   9.6092   9.6913   9.6913  10.0070  10.0070  10.1624
    10.2303  10.2304  10.3603  10.3604  10.6742  10.7063  10.7064  10.7640
    10.7774  10.8514  12.7408  12.8152  12.8176  12.8176  13.4252  13.6127
    13.8056  13.8549  13.9278  14.1037  14.2476  14.9819  14.9819  15.1208
    15.2257  15.2257  15.4009  15.4397  15.4397  15.7043  15.8037  15.8983
    15.9550  16.4127  16.4252  16.4252  16.4857  16.4916  16.4916  16.4950
    16.5227  16.5227  16.6080  16.6597  16.6597  16.7710  17.1205  17.1205
    17.2105  17.3009  17.3278  17.3624  17.3624  17.6723  17.7243  17.7628
    17.7628  17.8705

     occupation numbers 
     1.0000   1.0000   1.0000   1.0000   1.0000   1.0000   1.0000   1.0000
     1.0000   1.0000   1.0000   1.0000   1.0000   1.0000   1.0000   1.0000
     1.0000   1.0000   1.0000   1.0000   1.0000   1.0000   1.0000   1.0000
     1.0000   1.0000   1.0000   1.0000   1.0000   1.0000   1.0000   1.0000
     1.0000   1.0000   1.0000   1.0000   1.0000   1.0000   1.0000   1.0000
     1.0000   1.0000   1.0000   1.0000   1.0000   1.0000   1.0000   1.0000
     1.0000   1.0000   1.0000   1.0000   1.0000   1.0000   1.0000   1.0000
     1.0000   1.0000   1.0000   1.0000   1.0000   1.0000   1.0000   1.0000
     1.0000   1.0000   1.0000   1.0000   1.0000   1.0000   1.0000   1.0000
     1.0000   1.0000   1.0000   1.0000   1.0000   1.0000   1.0000   1.0000
     1.0000   1.0000   1.0000   1.0000   1.0000   1.0000   1.0000   1.0000
     1.0000   1.0000   1.0000   1.0000   1.0000   1.0000   1.0000   1.0000
     1.0000   1.0000   1.0000   1.0000   1.0000   1.0000   1.0000   1.0000
     1.0000   1.0000   1.0000   1.0000   1.0000   1.0000   1.0000   1.0000
     1.0000   1.0000   1.0000   1.0000   1.0000   1.0000   1.0000   1.0000
     1.0000   1.0000   1.0000   1.0000   1.0000   1.0000   1.0000   1.0000
     1.0000   1.0000   1.0000   1.0000   1.0000   1.0000   1.0000   1.0000
     1.0000   1.0000   1.0000   1.0000   1.0000   1.0000   1.0000   1.0000
     1.0000   1.0000   1.0000   1.0000   1.0000   1.0000   1.0000   1.0000
     1.0000   1.0000   1.0000   1.0000   1.0000   1.0000   1.0000   1.0000
     1.0000   1.0000   1.0000   1.0000   1.0000   1.0000   1.0000   1.0000
     1.0000   1.0000   1.0000   1.0000   1.0000   1.0000   1.0000   1.0000
     1.0000   1.0000   1.0000   1.0000   1.0000   1.0000   1.0000   1.0000
     1.0000   1.0000   1.0000   1.0000   1.0000   1.0000   1.0000   1.0000
     1.0000   1.0000   1.0000   1.0000   1.0000   1.0000   1.0000   1.0000
     1.0000   1.0000   1.0000   1.0000   1.0000   1.0000   1.0000   1.0000
     1.0000   1.0000   1.0000   1.0000   1.0000   1.0000   1.0000   1.0000
     1.0000   1.0000   1.0000   1.0000   1.0000   1.0000   1.0000   1.0000
     1.0000   1.0000   1.0000   1.0000   1.0000   1.0000   1.0000   1.0000
     1.0000   1.0000   1.0000   1.0000   1.0000   1.0000   1.0000   1.0000
     1.0000   1.0000   1.0000   1.0000   1.0000   1.0000   1.0025   1.0035
     0.5350   0.3452   0.0000   0.0000   0.0000   0.0000   0.0000   0.0000
     0.0000   0.0000   0.0000   0.0000   0.0000   0.0000   0.0000   0.0000
     0.0000   0.0000   0.0000   0.0000   0.0000   0.0000   0.0000   0.0000
     0.0000   0.0000   0.0000   0.0000   0.0000   0.0000   0.0000   0.0000
[...]
   -58.5530 -58.5530 -58.5530 -58.5530 -58.2090 -58.2090 -58.2090 -58.2090
   -58.2089 -58.2089 -58.2089 -58.2089 -58.1363 -58.1363 -58.1361 -58.1361
   -58.0289 -58.0289 -58.0288 -58.0288 -57.8637 -57.8637 -57.8636 -57.8636
   -57.8133 -57.8133 -57.8132 -57.8132 -57.8130 -57.8130 -57.8130 -57.8130
   -30.1291 -30.1222 -30.1126 -30.1059 -15.2178 -15.2066 -15.1619 -15.1519
   -15.0909 -15.0820 -15.0470 -15.0385 -10.9183 -10.8916 -10.8410 -10.7660
   -10.7204 -10.7074 -10.5575 -10.4898 -10.4515 -10.4453 -10.2486 -10.2382
    -7.4970  -7.1745  -6.9707  -6.8867  -6.8364  -6.6934  -6.6747  -6.5659
    -6.4162  -6.3724  -6.3578  -6.3433  -6.3326  -6.2758  -6.2513  -6.2028
    -6.1956  -6.1857  -6.1201  -6.1022  -5.8756  -5.8725  -5.7946  -5.7608
    -0.8068  -0.7821  -0.6690  -0.6245  -0.6076  -0.5994  -0.5903  -0.5235
    -0.5063  -0.4898  -0.4749  -0.4624  -0.4386  -0.4214  -0.2416  -0.2056
    -0.1984  -0.1882  -0.1859  -0.1763   0.0101   0.0379   0.0614   0.0846
     3.4490   3.9261   3.9750   4.2395   4.5399   4.6608   4.8917   4.9444
     4.9822   5.1147   5.1265   5.2749   5.3935   5.4115   5.4206   5.4380
     5.4843   5.5765   5.6483   5.6740   5.7001   5.7415   5.7462   5.7709
     5.7842   5.8086   5.8309   6.0314   6.3159   6.3248   6.4740   6.5369
     6.5532   6.5546   6.5727   6.5994   6.6747   6.6882   6.7028   6.7274
     6.8858   6.9144   6.9154   6.9447   7.0764   7.0767   7.1842   7.2330
     7.3893   7.4110   7.4229   7.4380   7.4884   7.5454   7.5601   7.5802
     7.6245   7.6564   7.6581   7.7245   7.7773   7.7897   7.8392   7.8785
     7.9565   7.9733   8.0542   8.1385   8.2401   8.2516   8.3214   8.3571
     8.3889   8.4121   8.4286   8.4388   8.4569   8.4913   8.5398   8.5745
     8.6014   8.6456   8.6512   8.7775   8.8036   8.8404   8.8613   8.8772
     8.8928   8.8952   8.9037   8.9230   8.9551   8.9925   9.0081   9.0415
     9.0574   9.0837   9.0954   9.1094   9.1228   9.1402   9.1668   9.1897
     9.1925   9.2172   9.2860   9.3006   9.3218   9.3303   9.3543   9.4042
     9.6017   9.6353   9.7359   9.8519   9.9521  10.0538  10.0706  10.3079
    10.3436  10.3817  10.4759  10.4936  10.5135  10.5707  10.6699  10.7385
    11.2061  11.4286  12.1760  12.2912  13.0333  13.3029  13.3973  13.7829
    13.9060  13.9967  14.2630  14.5383  14.5993  14.6990  14.8153  14.8468
    15.1903  15.2269  15.4368  15.5240  15.5327  15.6268  15.7390  15.7482
    15.8310  15.8644  16.2128  16.3962  16.4027  16.4698  16.4940  16.5753
    16.5929  16.7639  16.8536  16.8864  16.9850  17.0027  17.0334  17.2030
    17.2289  17.3387  17.3403  17.4655  17.4741  17.5787  17.6908  17.7665
    17.7846  17.8052

     occupation numbers 
     1.0000   1.0000   1.0000   1.0000   1.0000   1.0000   1.0000   1.0000
     1.0000   1.0000   1.0000   1.0000   1.0000   1.0000   1.0000   1.0000
     1.0000   1.0000   1.0000   1.0000   1.0000   1.0000   1.0000   1.0000
     1.0000   1.0000   1.0000   1.0000   1.0000   1.0000   1.0000   1.0000
     1.0000   1.0000   1.0000   1.0000   1.0000   1.0000   1.0000   1.0000
     1.0000   1.0000   1.0000   1.0000   1.0000   1.0000   1.0000   1.0000
     1.0000   1.0000   1.0000   1.0000   1.0000   1.0000   1.0000   1.0000
     1.0000   1.0000   1.0000   1.0000   1.0000   1.0000   1.0000   1.0000
     1.0000   1.0000   1.0000   1.0000   1.0000   1.0000   1.0000   1.0000
     1.0000   1.0000   1.0000   1.0000   1.0000   1.0000   1.0000   1.0000
     1.0000   1.0000   1.0000   1.0000   1.0000   1.0000   1.0000   1.0000
     1.0000   1.0000   1.0000   1.0000   1.0000   1.0000   1.0000   1.0000
     1.0000   1.0000   1.0000   1.0000   1.0000   1.0000   1.0000   1.0000
     1.0000   1.0000   1.0000   1.0000   1.0000   1.0000   1.0000   1.0000
     1.0000   1.0000   1.0000   1.0000   1.0000   1.0000   1.0000   1.0000
     1.0000   1.0000   1.0000   1.0000   1.0000   1.0000   1.0000   1.0000
     1.0000   1.0000   1.0000   1.0000   1.0000   1.0000   1.0000   1.0000
     1.0000   1.0000   1.0000   1.0000   1.0000   1.0000   1.0000   1.0000
     1.0000   1.0000   1.0000   1.0000   1.0000   1.0000   1.0000   1.0000
     1.0000   1.0000   1.0000   1.0000   1.0000   1.0000   1.0000   1.0000
     1.0000   1.0000   1.0000   1.0000   1.0000   1.0000   1.0000   1.0000
     1.0000   1.0000   1.0000   1.0000   1.0000   1.0000   1.0000   1.0000
     1.0000   1.0000   1.0000   1.0000   1.0000   1.0000   1.0000   1.0000
     1.0000   1.0000   1.0000   1.0000   1.0000   1.0000   1.0000   1.0000
     1.0000   1.0000   1.0000   1.0000   1.0000   1.0000   1.0000   1.0000
     1.0000   1.0000   1.0000   1.0000   1.0000   1.0000   1.0000   1.0000
     1.0000   1.0000   1.0000   1.0000   1.0000   1.0000   1.0000   1.0000
     1.0000   1.0000   1.0000   1.0000   1.0000   1.0000   1.0000   1.0000
     1.0000   1.0000   1.0000   1.0000   1.0000   1.0000   1.0000   1.0000
     1.0000   1.0000   1.0000   1.0000   1.0000   1.0000   1.0000   1.0000
     1.0000   1.0000   1.0000   1.0000   1.0000   1.0000   1.0413   1.0425
    -0.0396  -0.0363   0.0000   0.0000   0.0000   0.0000   0.0000   0.0000
     0.0000   0.0000   0.0000   0.0000   0.0000   0.0000   0.0000   0.0000
     0.0000   0.0000   0.0000   0.0000   0.0000   0.0000   0.0000   0.0000
     0.0000   0.0000   0.0000   0.0000   0.0000   0.0000   0.0000   0.0000
     0.0000   0.0000   0.0000   0.0000   0.0000   0.0000   0.0000   0.0000
     0.0000   0.0000   0.0000   0.0000   0.0000   0.0000   0.0000   0.0000
     0.0000   0.0000

          k = 0.3750 0.3750 0.0820 ( 35330 PWs)   bands (ev):

  -100.5254-100.5254-100.5253-100.5253-100.2265-100.2265-100.2264-100.2264
  -100.0745-100.0745-100.0743-100.0743 -58.5530 -58.5530 -58.5530 -58.5530
   -58.5530 -58.5530 -58.5530 -58.5530 -58.2090 -58.2090 -58.2090 -58.2090
   -58.2089 -58.2089 -58.2089 -58.2089 -58.1363 -58.1363 -58.1361 -58.1361
   -58.0289 -58.0289 -58.0288 -58.0288 -57.8637 -57.8637 -57.8636 -57.8636
   -57.8132 -57.8132 -57.8132 -57.8132 -57.8130 -57.8130 -57.8130 -57.8130
   -30.1243 -30.1174 -30.1174 -30.1107 -15.1795 -15.1728 -15.1272 -15.1272
   -15.1210 -15.1210 -15.0798 -15.0738 -10.7644 -10.7499 -10.7499 -10.7420
   -10.7070 -10.6476 -10.6476 -10.5367 -10.4991 -10.4566 -10.4566 -10.4531
    -7.2528  -6.9304  -6.9304  -6.8063  -6.8063  -6.7304  -6.6785  -6.6158
    -6.5863  -6.3969  -6.3969  -6.3822  -6.3402  -6.3060  -6.3060  -6.1706
    -6.1614  -6.1613  -6.1607  -6.1470  -5.8621  -5.8620  -5.8317  -5.8024
    -0.7515  -0.7304  -0.6120  -0.6120  -0.5996  -0.5961  -0.5195  -0.5195
    -0.4970  -0.4970  -0.4524  -0.4307  -0.4068  -0.4068  -0.4062  -0.3870
    -0.3429  -0.2822  -0.0808  -0.0808  -0.0169  -0.0169   0.0277   0.0876
     3.7971   4.2680   4.2680   4.3280   4.6098   4.6098   4.7760   4.9722
     5.0023   5.0129   5.1921   5.1921   5.2333   5.3618   5.3919   5.3919
     5.4322   5.5636   5.6935   5.6935   5.7580   5.7698   5.7880   5.7881
     5.8391   5.8764   5.8764   5.9303   5.9303   6.0725   6.2270   6.2578
     6.2791   6.4873   6.4873   6.5050   6.6722   6.6722   6.6985   6.7622
     6.8146   7.0072   7.0498   7.0498   7.0698   7.0698   7.1637   7.2149
     7.3304   7.3305   7.3631   7.3999   7.5160   7.5160   7.5682   7.5699
     7.6075   7.6078   7.6078   7.6378   7.8086   7.8703   7.8703   7.9442
     8.0921   8.1045   8.1045   8.1325   8.1325   8.2074   8.2111   8.2268
     8.3183   8.3183   8.4599   8.5543   8.5543   8.5875   8.6393   8.6564
     8.6564   8.6695   8.7058   8.7195   8.7923   8.7923   8.8172   8.8661
     8.8741   8.8797   8.8797   8.8858   8.8979   9.0225   9.0387   9.0388
     9.0540   9.0815   9.0816   9.1098   9.1604   9.1605   9.1661   9.1746
     9.1746   9.2200   9.2567   9.2567   9.3123   9.3614   9.3615   9.4236
     9.5003   9.5197   9.5197   9.6542  10.3016  10.3017  10.3459  10.3979
    10.5031  10.6099  10.6574  10.6575  10.7917  10.7967  10.8570  10.8570
    11.3349  11.3349  11.8192  11.9399  13.4132  13.4132  13.4309  13.7125
    14.2036  14.3260  14.4170  14.6702  14.6702  14.8135  14.8135  14.9542
    15.0752  15.0752  15.2962  15.3104  15.4653  15.6881  15.9512  16.0068
    16.2133  16.2134  16.3902  16.3903  16.4249  16.4249  16.5173  16.7173
    16.7173  16.7203  16.9018  16.9067  16.9694  16.9857  16.9857  17.2198
    17.2491  17.2491  17.2520  17.3029  17.3029  17.3120  17.3183  17.3238
    17.3492  17.4397

     occupation numbers 
     1.0000   1.0000   1.0000   1.0000   1.0000   1.0000   1.0000   1.0000
     1.0000   1.0000   1.0000   1.0000   1.0000   1.0000   1.0000   1.0000
     1.0000   1.0000   1.0000   1.0000   1.0000   1.0000   1.0000   1.0000
     1.0000   1.0000   1.0000   1.0000   1.0000   1.0000   1.0000   1.0000
     1.0000   1.0000   1.0000   1.0000   1.0000   1.0000   1.0000   1.0000
     1.0000   1.0000   1.0000   1.0000   1.0000   1.0000   1.0000   1.0000
     1.0000   1.0000   1.0000   1.0000   1.0000   1.0000   1.0000   1.0000
     1.0000   1.0000   1.0000   1.0000   1.0000   1.0000   1.0000   1.0000
     1.0000   1.0000   1.0000   1.0000   1.0000   1.0000   1.0000   1.0000
     1.0000   1.0000   1.0000   1.0000   1.0000   1.0000   1.0000   1.0000
     1.0000   1.0000   1.0000   1.0000   1.0000   1.0000   1.0000   1.0000
     1.0000   1.0000   1.0000   1.0000   1.0000   1.0000   1.0000   1.0000
     1.0000   1.0000   1.0000   1.0000   1.0000   1.0000   1.0000   1.0000
     1.0000   1.0000   1.0000   1.0000   1.0000   1.0000   1.0000   1.0000
     1.0000   1.0000   1.0000   1.0000   1.0000   1.0000   1.0000   1.0000
     1.0000   1.0000   1.0000   1.0000   1.0000   1.0000   1.0000   1.0000
     1.0000   1.0000   1.0000   1.0000   1.0000   1.0000   1.0000   1.0000
     1.0000   1.0000   1.0000   1.0000   1.0000   1.0000   1.0000   1.0000
     1.0000   1.0000   1.0000   1.0000   1.0000   1.0000   1.0000   1.0000
     1.0000   1.0000   1.0000   1.0000   1.0000   1.0000   1.0000   1.0000
     1.0000   1.0000   1.0000   1.0000   1.0000   1.0000   1.0000   1.0000
     1.0000   1.0000   1.0000   1.0000   1.0000   1.0000   1.0000   1.0000
     1.0000   1.0000   1.0000   1.0000   1.0000   1.0000   1.0000   1.0000
     1.0000   1.0000   1.0000   1.0000   1.0000   1.0000   1.0000   1.0000
     1.0000   1.0000   1.0000   1.0000   1.0000   1.0000   1.0000   1.0000
     1.0000   1.0000   1.0000   1.0000   1.0000   1.0000   1.0000   1.0000
     1.0000   1.0000   1.0000   1.0000   1.0000   1.0000   1.0000   1.0000
     1.0000   1.0000   1.0000   1.0000   1.0000   1.0000   1.0000   1.0000
     1.0000   1.0000   1.0000   1.0000   1.0000   1.0000   1.0000   1.0000
     1.0000   1.0000   1.0000   1.0000   1.0000   1.0000   1.0000   1.0000
     1.0000   1.0000   1.0000   1.0000   1.0000   1.0000   0.6433   0.6255
    -0.0092  -0.0000   0.0000   0.0000   0.0000   0.0000   0.0000   0.0000
     0.0000   0.0000   0.0000   0.0000   0.0000   0.0000   0.0000   0.0000
     0.0000   0.0000   0.0000   0.0000   0.0000   0.0000   0.0000   0.0000
     0.0000   0.0000   0.0000   0.0000   0.0000   0.0000   0.0000   0.0000
     0.0000   0.0000   0.0000   0.0000   0.0000   0.0000   0.0000   0.0000
     0.0000   0.0000   0.0000   0.0000   0.0000   0.0000   0.0000   0.0000
     0.0000   0.0000

          k = 0.3750 0.3750 0.2459 ( 35313 PWs)   bands (ev):

  -100.5254-100.5254-100.5253-100.5253-100.2265-100.2265-100.2264-100.2264
  -100.0745-100.0745-100.0743-100.0743 -58.5530 -58.5530 -58.5530 -58.5530
   -58.5530 -58.5530 -58.5530 -58.5530 -58.2090 -58.2090 -58.2090 -58.2090
   -58.2089 -58.2089 -58.2089 -58.2089 -58.1363 -58.1363 -58.1361 -58.1361
   -58.0289 -58.0289 -58.0288 -58.0288 -57.8637 -57.8637 -57.8636 -57.8636
   -57.8132 -57.8132 -57.8132 -57.8132 -57.8130 -57.8130 -57.8130 -57.8130
   -30.1243 -30.1174 -30.1174 -30.1107 -15.1814 -15.1709 -15.1289 -15.1289
   -15.1193 -15.1193 -15.0813 -15.0723 -10.7645 -10.7499 -10.7499 -10.7420
   -10.7070 -10.6477 -10.6477 -10.5368 -10.4991 -10.4566 -10.4566 -10.4531
    -7.2522  -6.9288  -6.9288  -6.8106  -6.8106  -6.7347  -6.6806  -6.6103
    -6.5863  -6.3970  -6.3970  -6.3822  -6.3402  -6.2828  -6.2828  -6.1844
    -6.1843  -6.1706  -6.1611  -6.1419  -5.8595  -5.8594  -5.8324  -5.8062
    -0.7466  -0.7353  -0.6070  -0.6070  -0.5855  -0.5820  -0.5224  -0.5224
    -0.4861  -0.4861  -0.4685  -0.4463  -0.4209  -0.4209  -0.4007  -0.3925
    -0.3332  -0.2911  -0.0691  -0.0691  -0.0285  -0.0285   0.0363   0.0796
     3.8079   4.2778   4.2778   4.3137   4.6004   4.6004   4.7884   4.9722
     4.9892   5.0129   5.1906   5.1906   5.2469   5.3618   5.3904   5.3904
     5.4322   5.5489   5.6969   5.6969   5.7698   5.7783   5.7783   5.7797
     5.8339   5.8846   5.8846   5.9402   5.9402   6.0729   6.2208   6.2697
     6.2793   6.4864   6.4864   6.5047   6.7051   6.7113   6.7113   6.7622
     6.8908   6.9251   6.9717   6.9717   7.0292   7.0839   7.0839   7.1827
     7.1828   7.2135   7.2693   7.3011   7.5183   7.5183   7.5712   7.6036
     7.7090   7.8016   7.8016   7.8401   7.9041   7.9478   7.9504   7.9504
     8.0338   8.0742   8.0742   8.1472   8.1472   8.2269   8.2317   8.2317
     8.2859   8.2865   8.4728   8.5118   8.5976   8.6015   8.6015   8.6465
     8.6465   8.7072   8.7354   8.7698   8.8209   8.8271   8.8449   8.8642
     8.8642   8.8878   8.8954   8.8954   8.9029   9.0296   9.0508   9.0509
     9.0677   9.0805   9.0805   9.1218   9.1227   9.1227   9.1562   9.1685
     9.1758   9.1926   9.2174   9.2174   9.2497   9.2920   9.3193   9.3193
     9.3827   9.4967   9.4967   9.7242  10.2928  10.2929  10.3362  10.3944
    10.4752  10.6474  10.6475  10.6486  10.7857  10.7914  10.8673  10.8673
    11.3294  11.3295  11.8224  11.9376  13.4476  13.4476  13.5401  13.7440
    14.2316  14.3644  14.3935  14.7021  14.7021  14.7994  14.7994  14.9412
    15.0623  15.0623  15.2266  15.3413  15.4088  15.8822  15.9103  15.9246
    16.0940  16.1531  16.1531  16.4105  16.4105  16.4940  16.4940  16.6123
    16.6123  16.6683  16.6738  16.7098  16.8836  16.8836  17.0140  17.0140
    17.0320  17.0887  17.2931  17.3681  17.4067  17.4195  17.4195  17.4536
    17.4690  17.6622

     occupation numbers 
     1.0000   1.0000   1.0000   1.0000   1.0000   1.0000   1.0000   1.0000
     1.0000   1.0000   1.0000   1.0000   1.0000   1.0000   1.0000   1.0000
     1.0000   1.0000   1.0000   1.0000   1.0000   1.0000   1.0000   1.0000
     1.0000   1.0000   1.0000   1.0000   1.0000   1.0000   1.0000   1.0000
     1.0000   1.0000   1.0000   1.0000   1.0000   1.0000   1.0000   1.0000
     1.0000   1.0000   1.0000   1.0000   1.0000   1.0000   1.0000   1.0000
     1.0000   1.0000   1.0000   1.0000   1.0000   1.0000   1.0000   1.0000
     1.0000   1.0000   1.0000   1.0000   1.0000   1.0000   1.0000   1.0000
     1.0000   1.0000   1.0000   1.0000   1.0000   1.0000   1.0000   1.0000
     1.0000   1.0000   1.0000   1.0000   1.0000   1.0000   1.0000   1.0000
     1.0000   1.0000   1.0000   1.0000   1.0000   1.0000   1.0000   1.0000
     1.0000   1.0000   1.0000   1.0000   1.0000   1.0000   1.0000   1.0000
     1.0000   1.0000   1.0000   1.0000   1.0000   1.0000   1.0000   1.0000
     1.0000   1.0000   1.0000   1.0000   1.0000   1.0000   1.0000   1.0000
     1.0000   1.0000   1.0000   1.0000   1.0000   1.0000   1.0000   1.0000
     1.0000   1.0000   1.0000   1.0000   1.0000   1.0000   1.0000   1.0000
     1.0000   1.0000   1.0000   1.0000   1.0000   1.0000   1.0000   1.0000
     1.0000   1.0000   1.0000   1.0000   1.0000   1.0000   1.0000   1.0000
     1.0000   1.0000   1.0000   1.0000   1.0000   1.0000   1.0000   1.0000
     1.0000   1.0000   1.0000   1.0000   1.0000   1.0000   1.0000   1.0000
     1.0000   1.0000   1.0000   1.0000   1.0000   1.0000   1.0000   1.0000
     1.0000   1.0000   1.0000   1.0000   1.0000   1.0000   1.0000   1.0000
     1.0000   1.0000   1.0000   1.0000   1.0000   1.0000   1.0000   1.0000
     1.0000   1.0000   1.0000   1.0000   1.0000   1.0000   1.0000   1.0000
     1.0000   1.0000   1.0000   1.0000   1.0000   1.0000   1.0000   1.0000
     1.0000   1.0000   1.0000   1.0000   1.0000   1.0000   1.0000   1.0000
     1.0000   1.0000   1.0000   1.0000   1.0000   1.0000   1.0000   1.0000
     1.0000   1.0000   1.0000   1.0000   1.0000   1.0000   1.0000   1.0000
     1.0000   1.0000   1.0000   1.0000   1.0000   1.0000   1.0000   1.0000
     1.0000   1.0000   1.0000   1.0000   1.0000   1.0000   1.0000   1.0000
     1.0000   1.0000   1.0000   1.0000   1.0000   1.0000   0.5928   0.5473
    -0.0090  -0.0001   0.0000   0.0000   0.0000   0.0000   0.0000   0.0000
     0.0000   0.0000   0.0000   0.0000   0.0000   0.0000   0.0000   0.0000
     0.0000   0.0000   0.0000   0.0000   0.0000   0.0000   0.0000   0.0000
     0.0000   0.0000   0.0000   0.0000   0.0000   0.0000   0.0000   0.0000
     0.0000   0.0000   0.0000   0.0000   0.0000   0.0000   0.0000   0.0000
     0.0000   0.0000   0.0000   0.0000   0.0000   0.0000   0.0000   0.0000
     0.0000   0.0000

     the Fermi energy is    10.8532 ev
     (compare with:    10.8666 eV, computed in scf)

     Writing all to output data dir ./YBCO6/YBCO6.save/
 
     init_run     :     20.06s CPU     21.04s WALL (       1 calls)
     electrons    :   1165.30s CPU   1177.88s WALL (       1 calls)

     Called by init_run:
     wfcinit      :     15.64s CPU     15.81s WALL (       1 calls)
     wfcinit:atom :      0.19s CPU      0.30s WALL (      12 calls)
     wfcinit:wfcr :     34.18s CPU     34.54s WALL (      12 calls)
     potinit      :      0.10s CPU      0.17s WALL (       1 calls)
     hinit0       :      0.89s CPU      0.93s WALL (       1 calls)

     Called by electrons:
     c_bands      :   1165.22s CPU   1177.79s WALL (       1 calls)
     v_of_rho     :      0.05s CPU      0.06s WALL (       1 calls)
     v_h          :      0.02s CPU      0.02s WALL (       1 calls)
     v_xc         :      0.03s CPU      0.04s WALL (       1 calls)
     newd         :      3.28s CPU      3.96s WALL (       1 calls)

     Called by c_bands:
     init_us_2    :      0.64s CPU      0.68s WALL (      24 calls)
     init_us_2:cp :      0.64s CPU      0.68s WALL (      24 calls)
     cegterg      :   1126.87s CPU   1138.18s WALL (      52 calls)

     Called by sum_band:

     Called by *egterg:
     cdiaghg      :     77.36s CPU     80.52s WALL (     977 calls)
     cegterg:over :    140.94s CPU    141.94s WALL (     965 calls)
     cegterg:upda :     84.38s CPU     85.34s WALL (     965 calls)
     cegterg:last :    216.49s CPU    216.82s WALL (     336 calls)
     cdiaghg:chol :      1.24s CPU      1.32s WALL (     977 calls)
     cdiaghg:inve :      0.85s CPU      0.94s WALL (     977 calls)
     cdiaghg:para :     16.20s CPU     18.02s WALL (    1954 calls)
     h_psi        :    493.10s CPU    497.88s WALL (    1029 calls)
     s_psi        :    127.21s CPU    127.32s WALL (    1041 calls)
     g_psi        :      2.52s CPU      2.53s WALL (     965 calls)

     Called by h_psi:
     h_psi:calbec :    118.15s CPU    118.51s WALL (    1029 calls)
     vloc_psi     :    212.14s CPU    215.30s WALL (    1029 calls)
     add_vuspsi   :    125.20s CPU    125.21s WALL (    1029 calls)
     vhpsi        :     34.59s CPU     35.03s WALL (    1029 calls)

     General routines
     calbec       :    130.23s CPU    130.99s WALL (    2070 calls)
     fft          :      0.07s CPU      0.09s WALL (       9 calls)
     ffts         :      0.00s CPU      0.00s WALL (       2 calls)
     fftw         :    113.80s CPU    115.47s WALL (  217078 calls)
     interpolate  :      0.01s CPU      0.03s WALL (       2 calls)
     davcio       :      0.14s CPU      1.03s WALL (      48 calls)
 
     Parallel routines

     Hubbard U routines
     vhpsi        :     34.59s CPU     35.03s WALL (    1029 calls)
 
     PWSCF        :  19m46.08s CPU  20m 0.70s WALL

 
   This run was terminated on:  19: 7: 6   2Jan2024            

=------------------------------------------------------------------------------=
   JOB DONE.
=------------------------------------------------------------------------------=
