
     Program PWSCF v.7.2 starts on  1Jan2024 at 21: 6:46 

     This program is part of the open-source Quantum ESPRESSO suite
     for quantum simulation of materials; please cite
         "P. Giannozzi et al., J. Phys.:Condens. Matter 21 395502 (2009);
         "P. Giannozzi et al., J. Phys.:Condens. Matter 29 465901 (2017);
         "P. Giannozzi et al., J. Chem. Phys. 152 154105 (2020);
          URL http://www.quantum-espresso.org", 
     in publications or presentations arising from this work. More details at
     http://www.quantum-espresso.org/quote

     Parallel version (MPI), running on     4 processors

     MPI processes distributed on     1 nodes
     8350 MiB available memory on the printing compute node when the environment starts
 
     Waiting for input...
     Reading input from standard input
Warning: card &CELL ignored
Warning: card / ignored

     Current dimensions of program PWSCF are:
     Max number of different atomic species (ntypx) = 10
     Max number of k-points (npk) =  40000
     Max angular momentum in pseudopotentials (lmaxx) =  4
     Found identity + ( -0.5000 -0.5000  0.0000) symmetry
     This is a supercell, fractional translations are disabled
 
     R & G space division:  proc/nbgrp/npool/nimage =       4
     Subspace diagonalization in iterative solution of the eigenvalue problem:
     one sub-group per band group will be used
     custom distributed-memory algorithm (size of sub-group:  2*  2 procs)

 
     Parallelization info
     --------------------
     sticks:   dense  smooth     PW     G-vecs:    dense   smooth      PW
     Min        2210     984    252               238514    70654    9320
     Max        2211     985    253               238519    70656    9324
     Sum        8841    3937   1009               954065   282619   37287
 
     Using Slab Decomposition
 


     bravais-lattice index     =            6
     lattice parameter (alat)  =      14.3459  a.u.
     unit-cell volume          =    4502.1906 (a.u.)^3
     number of atoms/cell      =           48
     number of atomic types    =            6
     number of electrons       =       496.00
     number of Kohn-Sham states=          298
     kinetic-energy cutoff     =      60.0000  Ry
     charge density cutoff     =     540.0000  Ry
     scf convergence threshold =      1.0E-08
     mixing beta               =       0.1000
     number of iterations used =            8  plain     mixing
     Exchange-correlation= SLA  PZ   NOGX NOGC
                           (   1   1   0   0   0   0   0)
     Hubbard projectors: ortho-atomic
     Hubbard parameters of DFT+U (Dudarev formulation) in eV:
     U(Cu1-3d) =  2.5000
     U(Cu2-3d) =  2.5000

     Internal variables: lda_plus_u = T, lda_plus_u_kind = 0

     celldm(1)=  14.345919  celldm(2)=   0.000000  celldm(3)=   1.524891
     celldm(4)=   0.000000  celldm(5)=   0.000000  celldm(6)=   0.000000

     crystal axes: (cart. coord. in units of alat)
               a(1) = (   1.000000   0.000000   0.000000 )  
               a(2) = (   0.000000   1.000000   0.000000 )  
               a(3) = (   0.000000   0.000000   1.524891 )  

     reciprocal axes: (cart. coord. in units 2 pi/alat)
               b(1) = (  1.000000  0.000000  0.000000 )  
               b(2) = (  0.000000  1.000000  0.000000 )  
               b(3) = (  0.000000  0.000000  0.655785 )  


     PseudoPot. # 1 for Y  read from file:
     ~/q-e/pseudo/gbrv_lda/y_lda_v1.4.uspp.F.UPF
     MD5 check sum: Not computed, couldn't open file
     Pseudo is Ultrasoft + core correction, Zval = 11.0
     Generated by new atomic code, or converted to UPF format
     Using radial grid of  885 points,  6 beta functions with: 
                l(1) =   0
                l(2) =   0
                l(3) =   1
                l(4) =   1
                l(5) =   2
                l(6) =   2
     Q(r) pseudized with  8 coefficients,  rinner =    1.200   1.200   1.200
                                                       1.200   1.200

     PseudoPot. # 2 for Ba read from file:
     ~/q-e/pseudo/gbrv_lda/ba_lda_v1.uspp.F.UPF
     MD5 check sum: Not computed, couldn't open file
     Pseudo is Ultrasoft + core correction, Zval = 10.0
     Generated by new atomic code, or converted to UPF format
     Using radial grid of  907 points,  7 beta functions with: 
                l(1) =   0
                l(2) =   0
                l(3) =   1
                l(4) =   1
                l(5) =   2
                l(6) =   2
                l(7) =   3
     Q(r) pseudized with  6 coefficients,  rinner =    1.700   1.700   1.700
                                                       1.700   1.700   1.700
                                                       1.700

     PseudoPot. # 3 for Cu read from file:
     ~/q-e/pseudo/gbrv_lda/cu_lda_v1.2.uspp.F.UPF
     MD5 check sum: Not computed, couldn't open file
     Pseudo is Ultrasoft + core correction, Zval = 19.0
     Generated by new atomic code, or converted to UPF format
     Using radial grid of  867 points,  6 beta functions with: 
                l(1) =   0
                l(2) =   0
                l(3) =   1
                l(4) =   1
                l(5) =   2
                l(6) =   2
     Q(r) pseudized with  8 coefficients,  rinner =    1.150   1.150   1.150
                                                       1.150   1.150

     PseudoPot. # 4 for Cu read from file:
     ~/q-e/pseudo/gbrv_lda/cu_lda_v1.2.uspp.F.UPF
     MD5 check sum: Not computed, couldn't open file
     Pseudo is Ultrasoft + core correction, Zval = 19.0
     Generated by new atomic code, or converted to UPF format
     Using radial grid of  867 points,  6 beta functions with: 
                l(1) =   0
                l(2) =   0
                l(3) =   1
                l(4) =   1
                l(5) =   2
                l(6) =   2
     Q(r) pseudized with  8 coefficients,  rinner =    1.150   1.150   1.150
                                                       1.150   1.150

     PseudoPot. # 5 for Cu read from file:
     ~/q-e/pseudo/gbrv_lda/cu_lda_v1.2.uspp.F.UPF
     MD5 check sum: Not computed, couldn't open file
     Pseudo is Ultrasoft + core correction, Zval = 19.0
     Generated by new atomic code, or converted to UPF format
     Using radial grid of  867 points,  6 beta functions with: 
                l(1) =   0
                l(2) =   0
                l(3) =   1
                l(4) =   1
                l(5) =   2
                l(6) =   2
     Q(r) pseudized with  8 coefficients,  rinner =    1.150   1.150   1.150
                                                       1.150   1.150

     PseudoPot. # 6 for O  read from file:
     ~/q-e/pseudo/gbrv_lda/o_lda_v1.2.uspp.F.UPF
     MD5 check sum: Not computed, couldn't open file
     Pseudo is Ultrasoft + core correction, Zval =  6.0
     Generated by new atomic code, or converted to UPF format
     Using radial grid of  737 points,  5 beta functions with: 
                l(1) =   0
                l(2) =   0
                l(3) =   1
                l(4) =   1
                l(5) =   2
     Q(r) pseudized with  8 coefficients,  rinner =    0.900   0.900   0.900
                                                       0.900   0.900

     atomic species   valence    mass     pseudopotential
     Y                11.00    88.90584     Y ( 1.00)
     Ba               10.00   137.32700     Ba( 1.00)
     Cu               19.00    63.54600     Cu( 1.00)
     Cu1              19.00    63.54600     Cu( 1.00)
     Cu2              19.00    63.54600     Cu( 1.00)
     O                 6.00    15.99900     O ( 1.00)

     Starting magnetic structure 
     atomic species   magnetization
     Y               0.000
     Ba              0.000
     Cu              0.000
     Cu1             0.100
     Cu2            -0.100
     O               0.000

      8 Sym. Ops. (no inversion) found


                                    s                        frac. trans.

      isym =  1     identity                                     

 cryst.   s( 1) = (     1          0          0      )
                  (     0          1          0      )
                  (     0          0          1      )

 cart.    s( 1) = (  1.0000000  0.0000000  0.0000000 )
                  (  0.0000000  1.0000000  0.0000000 )
                  (  0.0000000  0.0000000  1.0000000 )


      isym =  2     180 deg rotation - cart. axis [0,0,1]        

 cryst.   s( 2) = (    -1          0          0      )
                  (     0         -1          0      )
                  (     0          0          1      )

 cart.    s( 2) = ( -1.0000000  0.0000000  0.0000000 )
                  (  0.0000000 -1.0000000  0.0000000 )
                  (  0.0000000  0.0000000  1.0000000 )


      isym =  3      90 deg rotation - cart. axis [0,0,-1]       

 cryst.   s( 3) = (     0         -1          0      )
                  (     1          0          0      )
                  (     0          0          1      )

 cart.    s( 3) = (  0.0000000  1.0000000  0.0000000 )
                  ( -1.0000000  0.0000000  0.0000000 )
                  (  0.0000000  0.0000000  1.0000000 )


      isym =  4      90 deg rotation - cart. axis [0,0,1]        

 cryst.   s( 4) = (     0          1          0      )
                  (    -1          0          0      )
                  (     0          0          1      )

 cart.    s( 4) = (  0.0000000 -1.0000000  0.0000000 )
                  (  1.0000000  0.0000000  0.0000000 )
                  (  0.0000000  0.0000000  1.0000000 )


      isym =  5     inv. 180 deg rotation - cart. axis [0,1,0]   

 cryst.   s( 5) = (     1          0          0      )
                  (     0         -1          0      )
                  (     0          0          1      )

 cart.    s( 5) = (  1.0000000  0.0000000  0.0000000 )
                  (  0.0000000 -1.0000000  0.0000000 )
                  (  0.0000000  0.0000000  1.0000000 )


      isym =  6     inv. 180 deg rotation - cart. axis [1,0,0]   

 cryst.   s( 6) = (    -1          0          0      )
                  (     0          1          0      )
                  (     0          0          1      )

 cart.    s( 6) = ( -1.0000000  0.0000000  0.0000000 )
                  (  0.0000000  1.0000000  0.0000000 )
                  (  0.0000000  0.0000000  1.0000000 )


      isym =  7     inv. 180 deg rotation - cart. axis [1,1,0]   

 cryst.   s( 7) = (     0         -1          0      )
                  (    -1          0          0      )
                  (     0          0          1      )

 cart.    s( 7) = (  0.0000000 -1.0000000  0.0000000 )
                  ( -1.0000000  0.0000000  0.0000000 )
                  (  0.0000000  0.0000000  1.0000000 )


      isym =  8     inv. 180 deg rotation - cart. axis [1,-1,0]  

 cryst.   s( 8) = (     0          1          0      )
                  (     1          0          0      )
                  (     0          0          1      )

 cart.    s( 8) = (  0.0000000  1.0000000  0.0000000 )
                  (  1.0000000  0.0000000  0.0000000 )
                  (  0.0000000  0.0000000  1.0000000 )


     point group C_4v (4mm) 
     there are  5 classes
     the character table:

       E     2C4   C2    2s_v  2s_d 
A_1    1.00  1.00  1.00  1.00  1.00
A_2    1.00  1.00  1.00 -1.00 -1.00
B_1    1.00 -1.00  1.00  1.00 -1.00
B_2    1.00 -1.00  1.00 -1.00  1.00
E      2.00  0.00 -2.00  0.00  0.00

     the symmetry operations in each class and the name of the first element:

     E        1
          identity                                               
     2C4      3    4
           90 deg rotation - cart. axis [0,0,-1]                 
     C2       2
          180 deg rotation - cart. axis [0,0,1]                  
     2s_v     5    6
          inv. 180 deg rotation - cart. axis [0,1,0]             
     2s_d     7    8
          inv. 180 deg rotation - cart. axis [1,1,0]             

   Cartesian axes

     site n.     atom                  positions (alat units)
         1        Y      tau(   1) = (   0.2500000   0.2500000   0.7624455  )
         2        Y      tau(   2) = (   0.2500000   0.7500000   0.7624455  )
         3        Y      tau(   3) = (   0.7500000   0.2500000   0.7624455  )
         4        Y      tau(   4) = (   0.7500000   0.7500000   0.7624455  )
         5        Ba     tau(   5) = (   0.2500000   0.2500000   0.2966571  )
         6        Ba     tau(   6) = (   0.2500000   0.2500000   1.2282339  )
         7        Ba     tau(   7) = (   0.2500000   0.7500000   0.2966571  )
         8        Ba     tau(   8) = (   0.2500000   0.7500000   1.2282339  )
         9        Ba     tau(   9) = (   0.7500000   0.2500000   0.2966571  )
        10        Ba     tau(  10) = (   0.7500000   0.2500000   1.2282339  )
        11        Ba     tau(  11) = (   0.7500000   0.7500000   0.2966571  )
        12        Ba     tau(  12) = (   0.7500000   0.7500000   1.2282339  )
        13        Cu     tau(  13) = (   0.0000000   0.0000000   0.0000000  )
        14        Cu1    tau(  14) = (   0.0000000   0.0000000   0.5526369  )
        15        Cu2    tau(  15) = (   0.0000000   0.0000000   0.9722541  )
        16        Cu     tau(  16) = (   0.0000000   0.5000000   0.0000000  )
        17        Cu2    tau(  17) = (   0.0000000   0.5000000   0.5526369  )
        18        Cu1    tau(  18) = (   0.0000000   0.5000000   0.9722541  )
        19        Cu     tau(  19) = (   0.5000000   0.0000000   0.0000000  )
        20        Cu2    tau(  20) = (   0.5000000   0.0000000   0.5526369  )
        21        Cu1    tau(  21) = (   0.5000000   0.0000000   0.9722541  )
        22        Cu     tau(  22) = (   0.5000000   0.5000000   0.0000000  )
        23        Cu1    tau(  23) = (   0.5000000   0.5000000   0.5526369  )
        24        Cu2    tau(  24) = (   0.5000000   0.5000000   0.9722541  )
        25        O      tau(  25) = (   0.0000000   0.0000000   0.2314064  )
        26        O      tau(  26) = (   0.0000000   0.0000000   1.2934846  )
        27        O      tau(  27) = (   0.5000000   0.0000000   0.2314064  )
        28        O      tau(  28) = (   0.5000000   0.0000000   1.2934846  )
        29        O      tau(  29) = (   0.0000000   0.5000000   0.2314064  )
        30        O      tau(  30) = (   0.0000000   0.5000000   1.2934846  )
        31        O      tau(  31) = (   0.5000000   0.5000000   0.2314064  )
        32        O      tau(  32) = (   0.5000000   0.5000000   1.2934846  )
        33        O      tau(  33) = (   0.2500000   0.0000000   0.5769788  )
        34        O      tau(  34) = (   0.2500000   0.0000000   0.9479122  )
        35        O      tau(  35) = (   0.2500000   0.5000000   0.5769788  )
        36        O      tau(  36) = (   0.2500000   0.5000000   0.9479122  )
        37        O      tau(  37) = (   0.7500000   0.0000000   0.5769788  )
        38        O      tau(  38) = (   0.7500000   0.0000000   0.9479122  )
        39        O      tau(  39) = (   0.7500000   0.5000000   0.5769788  )
        40        O      tau(  40) = (   0.7500000   0.5000000   0.9479122  )
        41        O      tau(  41) = (   0.0000000   0.2500000   0.5769788  )
        42        O      tau(  42) = (   0.0000000   0.2500000   0.9479122  )
        43        O      tau(  43) = (   0.5000000   0.2500000   0.5769788  )
        44        O      tau(  44) = (   0.5000000   0.2500000   0.9479122  )
        45        O      tau(  45) = (   0.0000000   0.7500000   0.5769788  )
        46        O      tau(  46) = (   0.0000000   0.7500000   0.9479122  )
        47        O      tau(  47) = (   0.5000000   0.7500000   0.5769788  )
        48        O      tau(  48) = (   0.5000000   0.7500000   0.9479122  )

   Crystallographic axes

     site n.     atom                  positions (cryst. coord.)
         1        Y      tau(   1) = (  0.2500000  0.2500000  0.5000000  )
         2        Y      tau(   2) = (  0.2500000  0.7500000  0.5000000  )
         3        Y      tau(   3) = (  0.7500000  0.2500000  0.5000000  )
         4        Y      tau(   4) = (  0.7500000  0.7500000  0.5000000  )
         5        Ba     tau(   5) = (  0.2500000  0.2500000  0.1945431  )
         6        Ba     tau(   6) = (  0.2500000  0.2500000  0.8054569  )
         7        Ba     tau(   7) = (  0.2500000  0.7500000  0.1945431  )
         8        Ba     tau(   8) = (  0.2500000  0.7500000  0.8054569  )
         9        Ba     tau(   9) = (  0.7500000  0.2500000  0.1945431  )
        10        Ba     tau(  10) = (  0.7500000  0.2500000  0.8054569  )
        11        Ba     tau(  11) = (  0.7500000  0.7500000  0.1945431  )
        12        Ba     tau(  12) = (  0.7500000  0.7500000  0.8054569  )
        13        Cu     tau(  13) = (  0.0000000  0.0000000  0.0000000  )
        14        Cu1    tau(  14) = (  0.0000000  0.0000000  0.3624108  )
        15        Cu2    tau(  15) = (  0.0000000  0.0000000  0.6375892  )
        16        Cu     tau(  16) = (  0.0000000  0.5000000  0.0000000  )
        17        Cu2    tau(  17) = (  0.0000000  0.5000000  0.3624108  )
        18        Cu1    tau(  18) = (  0.0000000  0.5000000  0.6375892  )
        19        Cu     tau(  19) = (  0.5000000  0.0000000  0.0000000  )
        20        Cu2    tau(  20) = (  0.5000000  0.0000000  0.3624108  )
        21        Cu1    tau(  21) = (  0.5000000  0.0000000  0.6375892  )
        22        Cu     tau(  22) = (  0.5000000  0.5000000  0.0000000  )
        23        Cu1    tau(  23) = (  0.5000000  0.5000000  0.3624108  )
        24        Cu2    tau(  24) = (  0.5000000  0.5000000  0.6375892  )
        25        O      tau(  25) = (  0.0000000  0.0000000  0.1517528  )
        26        O      tau(  26) = (  0.0000000  0.0000000  0.8482472  )
        27        O      tau(  27) = (  0.5000000  0.0000000  0.1517528  )
        28        O      tau(  28) = (  0.5000000  0.0000000  0.8482472  )
        29        O      tau(  29) = (  0.0000000  0.5000000  0.1517528  )
        30        O      tau(  30) = (  0.0000000  0.5000000  0.8482472  )
        31        O      tau(  31) = (  0.5000000  0.5000000  0.1517528  )
        32        O      tau(  32) = (  0.5000000  0.5000000  0.8482472  )
        33        O      tau(  33) = (  0.2500000  0.0000000  0.3783738  )
        34        O      tau(  34) = (  0.2500000  0.0000000  0.6216262  )
        35        O      tau(  35) = (  0.2500000  0.5000000  0.3783738  )
        36        O      tau(  36) = (  0.2500000  0.5000000  0.6216262  )
        37        O      tau(  37) = (  0.7500000  0.0000000  0.3783738  )
        38        O      tau(  38) = (  0.7500000  0.0000000  0.6216262  )
        39        O      tau(  39) = (  0.7500000  0.5000000  0.3783738  )
        40        O      tau(  40) = (  0.7500000  0.5000000  0.6216262  )
        41        O      tau(  41) = (  0.0000000  0.2500000  0.3783738  )
        42        O      tau(  42) = (  0.0000000  0.2500000  0.6216262  )
        43        O      tau(  43) = (  0.5000000  0.2500000  0.3783738  )
        44        O      tau(  44) = (  0.5000000  0.2500000  0.6216262  )
        45        O      tau(  45) = (  0.0000000  0.7500000  0.3783738  )
        46        O      tau(  46) = (  0.0000000  0.7500000  0.6216262  )
        47        O      tau(  47) = (  0.5000000  0.7500000  0.3783738  )
        48        O      tau(  48) = (  0.5000000  0.7500000  0.6216262  )

     number of k points=     2  Methfessel-Paxton smearing, width (Ry)=  0.0100
                       cart. coord. in units 2pi/alat
        k(    1) = (   0.0000000   0.0000000   0.0000000), wk =   0.5000000
        k(    2) = (   0.0000000   0.0000000  -0.3278923), wk =   0.5000000

                       cryst. coord.
        k(    1) = (   0.0000000   0.0000000   0.0000000), wk =   0.5000000
        k(    2) = (   0.0000000   0.0000000  -0.5000000), wk =   0.5000000

     Dense  grid:   954065 G-vectors     FFT dimensions: ( 108, 108, 162)

     Smooth grid:   282619 G-vectors     FFT dimensions: (  72,  72, 108)

     Dynamical RAM for                 wfc:      40.16 MB

     Dynamical RAM for     wfc (w. buffer):     200.82 MB

     Dynamical RAM for             U proj.:       5.39 MB

     Dynamical RAM for  U proj. (w. buff.):      26.96 MB

     Dynamical RAM for           str. fact:      21.84 MB

     Dynamical RAM for           local pot:       0.00 MB

     Dynamical RAM for          nlocal pot:     107.82 MB

     Dynamical RAM for                qrad:      20.88 MB

     Dynamical RAM for          rho,v,vnew:      43.73 MB

     Dynamical RAM for               rhoin:      14.58 MB

     Dynamical RAM for            rho*nmix:     116.46 MB

     Dynamical RAM for           G-vectors:      14.19 MB

     Dynamical RAM for          h,s,v(r/c):       4.07 MB

     Dynamical RAM for          <psi|beta>:       3.64 MB

     Dynamical RAM for                 psi:      80.33 MB

     Dynamical RAM for                hpsi:      80.33 MB

     Dynamical RAM for                spsi:      80.33 MB

     Dynamical RAM for      wfcinit/wfcrot:     113.79 MB

     Dynamical RAM for           addusdens:    1372.08 MB

     Estimated static dynamical RAM per process >     498.18 MB

     Estimated max dynamical RAM per process >       1.94 GB

     Estimated total dynamical RAM >       7.76 GB

     Check: negative core charge=   -0.000002
     Generating pointlists ...
     new r_m :   0.1284 (alat units)  1.8421 (a.u.) for type    1
     new r_m :   0.1483 (alat units)  2.1276 (a.u.) for type    2
     new r_m :   0.0955 (alat units)  1.3694 (a.u.) for type    3
     new r_m :   0.1036 (alat units)  1.4864 (a.u.) for type    4
     new r_m :   0.1036 (alat units)  1.4864 (a.u.) for type    5
     new r_m :   0.0955 (alat units)  1.3694 (a.u.) for type    6

     Initial potential from superposition of free atoms

     starting charge     483.8832, renormalised to     496.0000

     negative rho (up, down):  4.013E-01 4.013E-01

     HUBBARD ENERGY =    0.8820  (Ry)

     STARTING HUBBARD OCCUPATIONS:

     =================== HUBBARD OCCUPATIONS ===================
     ------------------------ ATOM   14 ------------------------
     Tr[ns( 14)] (up, down, total) =   5.00000  3.00000  8.00000
     Atomic magnetic moment for atom  14 =   2.00000
     SPIN  1
     eigenvalues:
       1.000  1.000  1.000  1.000  1.000
     eigenvectors (columns):
       1.000  0.000  0.000  0.000  0.000
       0.000  1.000  0.000  0.000  0.000
       0.000  0.000  1.000  0.000  0.000
       0.000  0.000  0.000  1.000  0.000
       0.000  0.000  0.000  0.000  1.000
     occupation matrix ns (before diag.):
       1.000  0.000  0.000  0.000  0.000
       0.000  1.000  0.000  0.000  0.000
       0.000  0.000  1.000  0.000  0.000
       0.000  0.000  0.000  1.000  0.000
       0.000  0.000  0.000  0.000  1.000
     SPIN  2
     eigenvalues:
       0.600  0.600  0.600  0.600  0.600
     eigenvectors (columns):
       1.000  0.000  0.000  0.000  0.000
       0.000  1.000  0.000  0.000  0.000
       0.000  0.000  1.000  0.000  0.000
       0.000  0.000  0.000  1.000  0.000
       0.000  0.000  0.000  0.000  1.000
     occupation matrix ns (before diag.):
       0.600  0.000  0.000  0.000  0.000
       0.000  0.600  0.000  0.000  0.000
       0.000  0.000  0.600  0.000  0.000
       0.000  0.000  0.000  0.600  0.000
       0.000  0.000  0.000  0.000  0.600
     ------------------------ ATOM   15 ------------------------
     Tr[ns( 15)] (up, down, total) =   3.00000  5.00000  8.00000
     Atomic magnetic moment for atom  15 =  -2.00000
     SPIN  1
     eigenvalues:
       0.600  0.600  0.600  0.600  0.600
     eigenvectors (columns):
       1.000  0.000  0.000  0.000  0.000
       0.000  1.000  0.000  0.000  0.000
       0.000  0.000  1.000  0.000  0.000
       0.000  0.000  0.000  1.000  0.000
       0.000  0.000  0.000  0.000  1.000
     occupation matrix ns (before diag.):
       0.600  0.000  0.000  0.000  0.000
       0.000  0.600  0.000  0.000  0.000
       0.000  0.000  0.600  0.000  0.000
       0.000  0.000  0.000  0.600  0.000
       0.000  0.000  0.000  0.000  0.600
     SPIN  2
     eigenvalues:
       1.000  1.000  1.000  1.000  1.000
     eigenvectors (columns):
       1.000  0.000  0.000  0.000  0.000
       0.000  1.000  0.000  0.000  0.000
       0.000  0.000  1.000  0.000  0.000
       0.000  0.000  0.000  1.000  0.000
       0.000  0.000  0.000  0.000  1.000
     occupation matrix ns (before diag.):
       1.000  0.000  0.000  0.000  0.000
       0.000  1.000  0.000  0.000  0.000
       0.000  0.000  1.000  0.000  0.000
       0.000  0.000  0.000  1.000  0.000
       0.000  0.000  0.000  0.000  1.000
     ------------------------ ATOM   17 ------------------------
     Tr[ns( 17)] (up, down, total) =   3.00000  5.00000  8.00000
     Atomic magnetic moment for atom  17 =  -2.00000
     SPIN  1
     eigenvalues:
       0.600  0.600  0.600  0.600  0.600
     eigenvectors (columns):
       1.000  0.000  0.000  0.000  0.000
       0.000  1.000  0.000  0.000  0.000
       0.000  0.000  1.000  0.000  0.000
       0.000  0.000  0.000  1.000  0.000
       0.000  0.000  0.000  0.000  1.000
     occupation matrix ns (before diag.):
       0.600  0.000  0.000  0.000  0.000
       0.000  0.600  0.000  0.000  0.000
       0.000  0.000  0.600  0.000  0.000
       0.000  0.000  0.000  0.600  0.000
       0.000  0.000  0.000  0.000  0.600
     SPIN  2
     eigenvalues:
       1.000  1.000  1.000  1.000  1.000
     eigenvectors (columns):
       1.000  0.000  0.000  0.000  0.000
       0.000  1.000  0.000  0.000  0.000
       0.000  0.000  1.000  0.000  0.000
       0.000  0.000  0.000  1.000  0.000
       0.000  0.000  0.000  0.000  1.000
     occupation matrix ns (before diag.):
       1.000  0.000  0.000  0.000  0.000
       0.000  1.000  0.000  0.000  0.000
       0.000  0.000  1.000  0.000  0.000
       0.000  0.000  0.000  1.000  0.000
       0.000  0.000  0.000  0.000  1.000
     ------------------------ ATOM   18 ------------------------
     Tr[ns( 18)] (up, down, total) =   5.00000  3.00000  8.00000
     Atomic magnetic moment for atom  18 =   2.00000
     SPIN  1
     eigenvalues:
       1.000  1.000  1.000  1.000  1.000
     eigenvectors (columns):
       1.000  0.000  0.000  0.000  0.000
       0.000  1.000  0.000  0.000  0.000
       0.000  0.000  1.000  0.000  0.000
       0.000  0.000  0.000  1.000  0.000
       0.000  0.000  0.000  0.000  1.000
     occupation matrix ns (before diag.):
       1.000  0.000  0.000  0.000  0.000
       0.000  1.000  0.000  0.000  0.000
       0.000  0.000  1.000  0.000  0.000
       0.000  0.000  0.000  1.000  0.000
       0.000  0.000  0.000  0.000  1.000
     SPIN  2
     eigenvalues:
       0.600  0.600  0.600  0.600  0.600
     eigenvectors (columns):
       1.000  0.000  0.000  0.000  0.000
       0.000  1.000  0.000  0.000  0.000
       0.000  0.000  1.000  0.000  0.000
       0.000  0.000  0.000  1.000  0.000
       0.000  0.000  0.000  0.000  1.000
     occupation matrix ns (before diag.):
       0.600  0.000  0.000  0.000  0.000
       0.000  0.600  0.000  0.000  0.000
       0.000  0.000  0.600  0.000  0.000
       0.000  0.000  0.000  0.600  0.000
       0.000  0.000  0.000  0.000  0.600
     ------------------------ ATOM   20 ------------------------
     Tr[ns( 20)] (up, down, total) =   3.00000  5.00000  8.00000
     Atomic magnetic moment for atom  20 =  -2.00000
     SPIN  1
     eigenvalues:
       0.600  0.600  0.600  0.600  0.600
     eigenvectors (columns):
       1.000  0.000  0.000  0.000  0.000
       0.000  1.000  0.000  0.000  0.000
       0.000  0.000  1.000  0.000  0.000
       0.000  0.000  0.000  1.000  0.000
       0.000  0.000  0.000  0.000  1.000
     occupation matrix ns (before diag.):
       0.600  0.000  0.000  0.000  0.000
       0.000  0.600  0.000  0.000  0.000
       0.000  0.000  0.600  0.000  0.000
       0.000  0.000  0.000  0.600  0.000
       0.000  0.000  0.000  0.000  0.600
     SPIN  2
     eigenvalues:
       1.000  1.000  1.000  1.000  1.000
     eigenvectors (columns):
       1.000  0.000  0.000  0.000  0.000
       0.000  1.000  0.000  0.000  0.000
       0.000  0.000  1.000  0.000  0.000
       0.000  0.000  0.000  1.000  0.000
       0.000  0.000  0.000  0.000  1.000
     occupation matrix ns (before diag.):
       1.000  0.000  0.000  0.000  0.000
       0.000  1.000  0.000  0.000  0.000
       0.000  0.000  1.000  0.000  0.000
       0.000  0.000  0.000  1.000  0.000
       0.000  0.000  0.000  0.000  1.000
     ------------------------ ATOM   21 ------------------------
     Tr[ns( 21)] (up, down, total) =   5.00000  3.00000  8.00000
     Atomic magnetic moment for atom  21 =   2.00000
     SPIN  1
     eigenvalues:
       1.000  1.000  1.000  1.000  1.000
     eigenvectors (columns):
       1.000  0.000  0.000  0.000  0.000
       0.000  1.000  0.000  0.000  0.000
       0.000  0.000  1.000  0.000  0.000
       0.000  0.000  0.000  1.000  0.000
       0.000  0.000  0.000  0.000  1.000
     occupation matrix ns (before diag.):
       1.000  0.000  0.000  0.000  0.000
       0.000  1.000  0.000  0.000  0.000
       0.000  0.000  1.000  0.000  0.000
       0.000  0.000  0.000  1.000  0.000
       0.000  0.000  0.000  0.000  1.000
     SPIN  2
     eigenvalues:
       0.600  0.600  0.600  0.600  0.600
     eigenvectors (columns):
       1.000  0.000  0.000  0.000  0.000
       0.000  1.000  0.000  0.000  0.000
       0.000  0.000  1.000  0.000  0.000
       0.000  0.000  0.000  1.000  0.000
       0.000  0.000  0.000  0.000  1.000
     occupation matrix ns (before diag.):
       0.600  0.000  0.000  0.000  0.000
       0.000  0.600  0.000  0.000  0.000
       0.000  0.000  0.600  0.000  0.000
       0.000  0.000  0.000  0.600  0.000
       0.000  0.000  0.000  0.000  0.600
     ------------------------ ATOM   23 ------------------------
     Tr[ns( 23)] (up, down, total) =   5.00000  3.00000  8.00000
     Atomic magnetic moment for atom  23 =   2.00000
     SPIN  1
     eigenvalues:
       1.000  1.000  1.000  1.000  1.000
     eigenvectors (columns):
       1.000  0.000  0.000  0.000  0.000
       0.000  1.000  0.000  0.000  0.000
       0.000  0.000  1.000  0.000  0.000
       0.000  0.000  0.000  1.000  0.000
       0.000  0.000  0.000  0.000  1.000
     occupation matrix ns (before diag.):
       1.000  0.000  0.000  0.000  0.000
       0.000  1.000  0.000  0.000  0.000
       0.000  0.000  1.000  0.000  0.000
       0.000  0.000  0.000  1.000  0.000
       0.000  0.000  0.000  0.000  1.000
     SPIN  2
     eigenvalues:
       0.600  0.600  0.600  0.600  0.600
     eigenvectors (columns):
       1.000  0.000  0.000  0.000  0.000
       0.000  1.000  0.000  0.000  0.000
       0.000  0.000  1.000  0.000  0.000
       0.000  0.000  0.000  1.000  0.000
       0.000  0.000  0.000  0.000  1.000
     occupation matrix ns (before diag.):
       0.600  0.000  0.000  0.000  0.000
       0.000  0.600  0.000  0.000  0.000
       0.000  0.000  0.600  0.000  0.000
       0.000  0.000  0.000  0.600  0.000
       0.000  0.000  0.000  0.000  0.600
     ------------------------ ATOM   24 ------------------------
     Tr[ns( 24)] (up, down, total) =   3.00000  5.00000  8.00000
     Atomic magnetic moment for atom  24 =  -2.00000
     SPIN  1
     eigenvalues:
       0.600  0.600  0.600  0.600  0.600
     eigenvectors (columns):
       1.000  0.000  0.000  0.000  0.000
       0.000  1.000  0.000  0.000  0.000
       0.000  0.000  1.000  0.000  0.000
       0.000  0.000  0.000  1.000  0.000
       0.000  0.000  0.000  0.000  1.000
     occupation matrix ns (before diag.):
       0.600  0.000  0.000  0.000  0.000
       0.000  0.600  0.000  0.000  0.000
       0.000  0.000  0.600  0.000  0.000
       0.000  0.000  0.000  0.600  0.000
       0.000  0.000  0.000  0.000  0.600
     SPIN  2
     eigenvalues:
       1.000  1.000  1.000  1.000  1.000
     eigenvectors (columns):
       1.000  0.000  0.000  0.000  0.000
       0.000  1.000  0.000  0.000  0.000
       0.000  0.000  1.000  0.000  0.000
       0.000  0.000  0.000  1.000  0.000
       0.000  0.000  0.000  0.000  1.000
     occupation matrix ns (before diag.):
       1.000  0.000  0.000  0.000  0.000
       0.000  1.000  0.000  0.000  0.000
       0.000  0.000  1.000  0.000  0.000
       0.000  0.000  0.000  1.000  0.000
       0.000  0.000  0.000  0.000  1.000

     Number of occupied Hubbard levels =   64.0000

     Atomic wfc used for Hubbard projectors are orthogonalized

     Starting wfcs are  408 randomized atomic wfcs

     total cpu time spent up to now is       21.7 secs

     Self-consistent Calculation

     iteration #  1     ecut=    60.00 Ry     beta= 0.10
     Davidson diagonalization with overlap

---- Real-time Memory Report at c_bands before calling an iterative solver
          1547 MiB given to the printing process from OS
             0 MiB allocation reported by mallinfo(arena+hblkhd)
          6139 MiB available memory on the node where the printing process lives
------------------
     ethr =  1.00E-02,  avg # of iterations =  2.0

     =================== HUBBARD OCCUPATIONS ===================
     ------------------------ ATOM   14 ------------------------
     Tr[ns( 14)] (up, down, total) =   4.85238  4.13872  8.99110
     Atomic magnetic moment for atom  14 =   0.71366
     SPIN  1
     eigenvalues:
       0.938  0.958  0.984  0.984  0.989
     eigenvectors (columns):
      -0.000  1.000 -0.000 -0.000  0.000
      -0.000  0.000  0.356  0.934  0.000
      -0.000  0.000  0.934 -0.356  0.000
       1.000  0.000  0.000  0.000 -0.000
       0.000 -0.000 -0.000 -0.000  1.000
     occupation matrix ns (before diag.):
       0.958 -0.000 -0.000  0.000  0.000
      -0.000  0.984 -0.000  0.000  0.000
      -0.000 -0.000  0.984  0.000  0.000
       0.000  0.000  0.000  0.938 -0.000
       0.000  0.000  0.000 -0.000  0.989
     SPIN  2
     eigenvalues:
       0.349  0.873  0.969  0.969  0.979
     eigenvectors (columns):
       0.000  1.000 -0.000 -0.000  0.000
      -0.000  0.000  0.368  0.930  0.000
      -0.000  0.000  0.930 -0.368  0.000
       1.000 -0.000  0.000  0.000 -0.000
       0.000 -0.000 -0.000 -0.000  1.000
     occupation matrix ns (before diag.):
       0.873 -0.000 -0.000  0.000  0.000
      -0.000  0.969 -0.000  0.000  0.000
      -0.000 -0.000  0.969  0.000  0.000
       0.000  0.000  0.000  0.349 -0.000
       0.000  0.000  0.000 -0.000  0.979
     ------------------------ ATOM   15 ------------------------
     Tr[ns( 15)] (up, down, total) =   4.13890  4.85247  8.99137
     Atomic magnetic moment for atom  15 =  -0.71357
     SPIN  1
     eigenvalues:
       0.349  0.873  0.969  0.969  0.979
     eigenvectors (columns):
      -0.000  1.000 -0.000 -0.000  0.000
      -0.000  0.000  0.317  0.949  0.000
      -0.000  0.000  0.949 -0.317  0.000
       1.000  0.000  0.000  0.000 -0.000
       0.000 -0.000 -0.000 -0.000  1.000
     occupation matrix ns (before diag.):
       0.873 -0.000 -0.000  0.000  0.000
      -0.000  0.969 -0.000  0.000  0.000
      -0.000 -0.000  0.969  0.000  0.000
       0.000  0.000  0.000  0.349 -0.000
       0.000  0.000  0.000 -0.000  0.979
     SPIN  2
     eigenvalues:
       0.938  0.958  0.984  0.984  0.989
     eigenvectors (columns):
      -0.000  1.000 -0.000 -0.000  0.000
      -0.000  0.000  0.324  0.946  0.000
      -0.000  0.000  0.946 -0.324  0.000
       1.000  0.000  0.000  0.000 -0.000
       0.000 -0.000 -0.000 -0.000  1.000
     occupation matrix ns (before diag.):
       0.958 -0.000 -0.000  0.000  0.000
      -0.000  0.984 -0.000  0.000  0.000
      -0.000 -0.000  0.984  0.000  0.000
       0.000  0.000  0.000  0.938 -0.000
       0.000  0.000  0.000 -0.000  0.989
     ------------------------ ATOM   17 ------------------------
     Tr[ns( 17)] (up, down, total) =   4.13877  4.85235  8.99112
     Atomic magnetic moment for atom  17 =  -0.71358
     SPIN  1
     eigenvalues:
       0.349  0.873  0.969  0.969  0.979
     eigenvectors (columns):
       0.000  1.000 -0.000 -0.000  0.000
      -0.000  0.000  1.000 -0.000  0.000
      -0.000  0.000  0.000  1.000  0.000
       1.000 -0.000  0.000  0.000 -0.000
       0.000 -0.000 -0.000 -0.000  1.000
     occupation matrix ns (before diag.):
       0.873 -0.000 -0.000 -0.000  0.000
      -0.000  0.969 -0.000  0.000  0.000
      -0.000 -0.000  0.969  0.000  0.000
      -0.000  0.000  0.000  0.349 -0.000
       0.000  0.000  0.000 -0.000  0.979
     SPIN  2
     eigenvalues:
       0.938  0.958  0.984  0.984  0.989
     eigenvectors (columns):
      -0.000  1.000 -0.000 -0.000  0.000
      -0.000  0.000  1.000 -0.000  0.000
      -0.000  0.000  0.000  1.000  0.000
       1.000  0.000  0.000  0.000 -0.000
       0.000 -0.000 -0.000 -0.000  1.000
     occupation matrix ns (before diag.):
       0.958 -0.000 -0.000  0.000  0.000
      -0.000  0.984 -0.000  0.000  0.000
      -0.000 -0.000  0.984  0.000  0.000
       0.000  0.000  0.000  0.938 -0.000
       0.000  0.000  0.000 -0.000  0.989
     ------------------------ ATOM   18 ------------------------
     Tr[ns( 18)] (up, down, total) =   4.85242  4.13861  8.99103
     Atomic magnetic moment for atom  18 =   0.71381
     SPIN  1
     eigenvalues:
       0.938  0.958  0.984  0.984  0.989
     eigenvectors (columns):
      -0.001  1.000 -0.000 -0.000  0.000
      -0.000  0.000  0.000  1.000  0.000
      -0.000  0.000  1.000 -0.000  0.000
       1.000  0.001  0.000  0.000 -0.000
       0.000 -0.000 -0.000 -0.000  1.000
     occupation matrix ns (before diag.):
       0.958 -0.000 -0.000  0.000  0.000
      -0.000  0.984 -0.000  0.000  0.000
      -0.000 -0.000  0.984  0.000  0.000
       0.000  0.000  0.000  0.938 -0.000
       0.000  0.000  0.000 -0.000  0.989
     SPIN  2
     eigenvalues:
       0.349  0.873  0.969  0.969  0.979
     eigenvectors (columns):
      -0.000  1.000 -0.000 -0.000  0.000
      -0.000  0.000  0.000  1.000  0.000
      -0.000  0.000  1.000 -0.000  0.000
       1.000  0.000  0.000  0.000 -0.000
       0.000 -0.000 -0.000 -0.000  1.000
     occupation matrix ns (before diag.):
       0.873 -0.000 -0.000  0.000  0.000
      -0.000  0.969 -0.000  0.000  0.000
      -0.000 -0.000  0.969  0.000  0.000
       0.000  0.000  0.000  0.349 -0.000
       0.000  0.000  0.000 -0.000  0.979
     ------------------------ ATOM   20 ------------------------
     Tr[ns( 20)] (up, down, total) =   4.13877  4.85235  8.99112
     Atomic magnetic moment for atom  20 =  -0.71358
     SPIN  1
     eigenvalues:
       0.349  0.873  0.969  0.969  0.979
     eigenvectors (columns):
      -0.000  1.000 -0.000 -0.000  0.000
      -0.000  0.000  0.000  1.000  0.000
      -0.000  0.000  1.000 -0.000  0.000
       1.000  0.000  0.000  0.000 -0.000
       0.000 -0.000 -0.000 -0.000  1.000
     occupation matrix ns (before diag.):
       0.873 -0.000 -0.000  0.000  0.000
      -0.000  0.969 -0.000  0.000  0.000
      -0.000 -0.000  0.969  0.000  0.000
       0.000  0.000  0.000  0.349 -0.000
       0.000  0.000  0.000 -0.000  0.979
     SPIN  2
     eigenvalues:
       0.938  0.958  0.984  0.984  0.989
     eigenvectors (columns):
       0.000  1.000 -0.000 -0.000  0.000
      -0.000  0.000  0.000  1.000  0.000
      -0.000  0.000  1.000 -0.000  0.000
       1.000 -0.000  0.000  0.000 -0.000
       0.000 -0.000 -0.000 -0.000  1.000
     occupation matrix ns (before diag.):
       0.958 -0.000 -0.000 -0.000  0.000
      -0.000  0.984 -0.000  0.000  0.000
      -0.000 -0.000  0.984  0.000  0.000
      -0.000  0.000  0.000  0.938 -0.000
       0.000  0.000  0.000 -0.000  0.989
     ------------------------ ATOM   21 ------------------------
     Tr[ns( 21)] (up, down, total) =   4.85242  4.13861  8.99103
     Atomic magnetic moment for atom  21 =   0.71381
     SPIN  1
     eigenvalues:
       0.938  0.958  0.984  0.984  0.989
     eigenvectors (columns):
       0.001  1.000 -0.000 -0.000  0.000
      -0.000  0.000  1.000 -0.000  0.000
      -0.000  0.000  0.000  1.000  0.000
       1.000 -0.001  0.000  0.000 -0.000
       0.000 -0.000 -0.000 -0.000  1.000
     occupation matrix ns (before diag.):
       0.958 -0.000 -0.000 -0.000  0.000
      -0.000  0.984 -0.000  0.000  0.000
      -0.000 -0.000  0.984  0.000  0.000
      -0.000  0.000  0.000  0.938 -0.000
       0.000  0.000  0.000 -0.000  0.989
     SPIN  2
     eigenvalues:
       0.349  0.873  0.969  0.969  0.979
     eigenvectors (columns):
       0.000  1.000 -0.000 -0.000  0.000
      -0.000  0.000  1.000 -0.000  0.000
      -0.000  0.000  0.000  1.000  0.000
       1.000 -0.000  0.000  0.000 -0.000
       0.000 -0.000 -0.000 -0.000  1.000
     occupation matrix ns (before diag.):
       0.873 -0.000 -0.000 -0.000  0.000
      -0.000  0.969 -0.000  0.000  0.000
      -0.000 -0.000  0.969  0.000  0.000
      -0.000  0.000  0.000  0.349 -0.000
       0.000  0.000  0.000 -0.000  0.979
     ------------------------ ATOM   23 ------------------------
     Tr[ns( 23)] (up, down, total) =   4.85242  4.13862  8.99104
     Atomic magnetic moment for atom  23 =   0.71381
     SPIN  1
     eigenvalues:
       0.938  0.958  0.984  0.984  0.989
     eigenvectors (columns):
      -0.000  1.000 -0.000 -0.000  0.000
      -0.000  0.000  0.325  0.946  0.000
      -0.000  0.000  0.946 -0.325  0.000
       1.000  0.000  0.000  0.000 -0.000
       0.000 -0.000 -0.000 -0.000  1.000
     occupation matrix ns (before diag.):
       0.958 -0.000 -0.000  0.000  0.000
      -0.000  0.984 -0.000  0.000  0.000
      -0.000 -0.000  0.984  0.000  0.000
       0.000  0.000  0.000  0.938 -0.000
       0.000  0.000  0.000 -0.000  0.989
     SPIN  2
     eigenvalues:
       0.349  0.873  0.969  0.969  0.979
     eigenvectors (columns):
       0.000  1.000 -0.000 -0.000  0.000
      -0.000  0.000  0.333  0.943  0.000
      -0.000  0.000  0.943 -0.333  0.000
       1.000  0.000  0.000  0.000 -0.000
       0.000 -0.000 -0.000 -0.000  1.000
     occupation matrix ns (before diag.):
       0.873 -0.000 -0.000  0.000  0.000
      -0.000  0.969 -0.000  0.000  0.000
      -0.000 -0.000  0.969  0.000  0.000
       0.000  0.000  0.000  0.349 -0.000
       0.000  0.000  0.000 -0.000  0.979
     ------------------------ ATOM   24 ------------------------
     Tr[ns( 24)] (up, down, total) =   4.13880  4.85254  8.99134
     Atomic magnetic moment for atom  24 =  -0.71374
     SPIN  1
     eigenvalues:
       0.349  0.873  0.969  0.969  0.979
     eigenvectors (columns):
       0.000  1.000 -0.000 -0.000  0.000
      -0.000  0.000  0.358  0.934  0.000
      -0.000  0.000  0.934 -0.358  0.000
       1.000 -0.000  0.000  0.000 -0.000
       0.000 -0.000 -0.000 -0.000  1.000
     occupation matrix ns (before diag.):
       0.873 -0.000 -0.000  0.000  0.000
      -0.000  0.969 -0.000  0.000  0.000
      -0.000 -0.000  0.969  0.000  0.000
       0.000  0.000  0.000  0.349 -0.000
       0.000  0.000  0.000 -0.000  0.979
     SPIN  2
     eigenvalues:
       0.938  0.958  0.984  0.984  0.989
     eigenvectors (columns):
      -0.000  1.000 -0.000 -0.000  0.000
      -0.000  0.000  0.339  0.941  0.000
      -0.000  0.000  0.941 -0.339  0.000
       1.000  0.000  0.000  0.000 -0.000
       0.000 -0.000 -0.000 -0.000  1.000
     occupation matrix ns (before diag.):
       0.958 -0.000 -0.000  0.000  0.000
      -0.000  0.984 -0.000  0.000  0.000
      -0.000 -0.000  0.984  0.000  0.000
       0.000  0.000  0.000  0.938 -0.000
       0.000  0.000  0.000 -0.000  0.989

     Number of occupied Hubbard levels =   71.9291

     negative rho (up, down):  3.965E-01 3.965E-01

     HUBBARD ENERGY =    0.4121  (Ry)

     total cpu time spent up to now is       64.9 secs

     total energy              =   -6555.21053443 Ry
     estimated scf accuracy    <       7.50606931 Ry

     total magnetization       =     0.00 Bohr mag/cell
     absolute magnetization    =     7.20 Bohr mag/cell

     iteration #  2     ecut=    60.00 Ry     beta= 0.10
     Davidson diagonalization with overlap

---- Real-time Memory Report at c_bands before calling an iterative solver
          2016 MiB given to the printing process from OS
             0 MiB allocation reported by mallinfo(arena+hblkhd)
          5814 MiB available memory on the node where the printing process lives
------------------
     ethr =  1.51E-03,  avg # of iterations =  2.0

     =================== HUBBARD OCCUPATIONS ===================
     ------------------------ ATOM   14 ------------------------
     Tr[ns( 14)] (up, down, total) =   4.85934  4.20118  9.06053
     Atomic magnetic moment for atom  14 =   0.65816
     SPIN  1
     eigenvalues:
       0.944  0.961  0.983  0.983  0.987
     eigenvectors (columns):
      -0.000  1.000 -0.000 -0.000  0.000
      -0.000  0.000  0.359  0.934  0.000
      -0.000  0.000  0.934 -0.359  0.000
       1.000  0.000  0.000  0.000 -0.000
       0.000 -0.000 -0.000 -0.000  1.000
     occupation matrix ns (before diag.):
       0.961 -0.000 -0.000  0.000  0.000
      -0.000  0.983 -0.000  0.000  0.000
      -0.000 -0.000  0.983  0.000  0.000
       0.000  0.000  0.000  0.944 -0.000
       0.000  0.000  0.000 -0.000  0.987
     SPIN  2
     eigenvalues:
       0.357  0.922  0.972  0.972  0.979
     eigenvectors (columns):
       0.000  1.000 -0.000 -0.000  0.000
      -0.000  0.000  0.349  0.937  0.000
      -0.000  0.000  0.937 -0.349  0.000
       1.000 -0.000  0.000  0.000 -0.000
       0.000 -0.000 -0.000 -0.000  1.000
     occupation matrix ns (before diag.):
       0.922 -0.000 -0.000 -0.000  0.000
      -0.000  0.972 -0.000  0.000  0.000
      -0.000 -0.000  0.972  0.000  0.000
      -0.000  0.000  0.000  0.357 -0.000
       0.000  0.000  0.000 -0.000  0.979
     ------------------------ ATOM   15 ------------------------
     Tr[ns( 15)] (up, down, total) =   4.20099  4.85936  9.06034
     Atomic magnetic moment for atom  15 =  -0.65837
     SPIN  1
     eigenvalues:
       0.357  0.922  0.972  0.972  0.979
     eigenvectors (columns):
       0.000  1.000 -0.000 -0.000  0.000
      -0.000  0.000  0.301  0.954  0.000
      -0.000  0.000  0.954 -0.301  0.000
       1.000 -0.000  0.000  0.000 -0.000
       0.000 -0.000 -0.000 -0.000  1.000
     occupation matrix ns (before diag.):
       0.922 -0.000 -0.000 -0.000  0.000
      -0.000  0.972 -0.000  0.000  0.000
      -0.000 -0.000  0.972  0.000  0.000
      -0.000  0.000  0.000  0.357 -0.000
       0.000  0.000  0.000 -0.000  0.979
     SPIN  2
     eigenvalues:
       0.944  0.961  0.983  0.983  0.987
     eigenvectors (columns):
      -0.000  1.000 -0.000 -0.000  0.000
      -0.000  0.000  0.329  0.944  0.000
      -0.000  0.000  0.944 -0.329  0.000
       1.000  0.000  0.000  0.000 -0.000
       0.000 -0.000 -0.000 -0.000  1.000
     occupation matrix ns (before diag.):
       0.961 -0.000 -0.000  0.000  0.000
      -0.000  0.983 -0.000  0.000  0.000
      -0.000 -0.000  0.983  0.000  0.000
       0.000  0.000  0.000  0.944 -0.000
       0.000  0.000  0.000 -0.000  0.987
     ------------------------ ATOM   17 ------------------------
     Tr[ns( 17)] (up, down, total) =   4.20115  4.85938  9.06053
     Atomic magnetic moment for atom  17 =  -0.65824
     SPIN  1
     eigenvalues:
       0.357  0.922  0.972  0.972  0.979
     eigenvectors (columns):
       0.000  1.000 -0.000 -0.000  0.000
      -0.000  0.000  1.000 -0.000  0.000
      -0.000  0.000  0.000  1.000  0.000
       1.000 -0.000  0.000  0.000 -0.000
       0.000 -0.000 -0.000 -0.000  1.000
     occupation matrix ns (before diag.):
       0.922 -0.000 -0.000 -0.000  0.000
      -0.000  0.972 -0.000  0.000  0.000
      -0.000 -0.000  0.972  0.000  0.000
      -0.000  0.000  0.000  0.357 -0.000
       0.000  0.000  0.000 -0.000  0.979
     SPIN  2
     eigenvalues:
       0.944  0.961  0.983  0.983  0.987
     eigenvectors (columns):
      -0.000  1.000 -0.000 -0.000  0.000
      -0.000  0.000  1.000 -0.000  0.000
      -0.000  0.000  0.000  1.000  0.000
       1.000  0.000  0.000  0.000 -0.000
       0.000 -0.000 -0.000 -0.000  1.000
     occupation matrix ns (before diag.):
       0.961 -0.000 -0.000  0.000  0.000
      -0.000  0.983 -0.000  0.000  0.000
      -0.000 -0.000  0.983  0.000  0.000
       0.000  0.000  0.000  0.944 -0.000
       0.000  0.000  0.000 -0.000  0.987
     ------------------------ ATOM   18 ------------------------
     Tr[ns( 18)] (up, down, total) =   4.85941  4.20109  9.06050
     Atomic magnetic moment for atom  18 =   0.65832
     SPIN  1
     eigenvalues:
       0.944  0.961  0.983  0.983  0.987
     eigenvectors (columns):
      -0.000  1.000 -0.000 -0.000  0.000
      -0.000  0.000  1.000 -0.000  0.000
      -0.000  0.000  0.000  1.000  0.000
       1.000  0.000  0.000  0.000 -0.000
       0.000 -0.000 -0.000 -0.000  1.000
     occupation matrix ns (before diag.):
       0.961 -0.000 -0.000  0.000  0.000
      -0.000  0.983 -0.000  0.000  0.000
      -0.000 -0.000  0.983  0.000  0.000
       0.000  0.000  0.000  0.944 -0.000
       0.000  0.000  0.000 -0.000  0.987
     SPIN  2
     eigenvalues:
       0.357  0.922  0.972  0.972  0.979
     eigenvectors (columns):
      -0.000  1.000 -0.000 -0.000  0.000
      -0.000  0.000  0.000  1.000  0.000
      -0.000  0.000  1.000 -0.000  0.000
       1.000  0.000  0.000  0.000 -0.000
       0.000 -0.000 -0.000 -0.000  1.000
     occupation matrix ns (before diag.):
       0.922 -0.000 -0.000  0.000  0.000
      -0.000  0.972 -0.000  0.000  0.000
      -0.000 -0.000  0.972  0.000  0.000
       0.000  0.000  0.000  0.357 -0.000
       0.000  0.000  0.000 -0.000  0.979
     ------------------------ ATOM   20 ------------------------
     Tr[ns( 20)] (up, down, total) =   4.20115  4.85938  9.06053
     Atomic magnetic moment for atom  20 =  -0.65824
     SPIN  1
     eigenvalues:
       0.357  0.922  0.972  0.972  0.979
     eigenvectors (columns):
      -0.000  1.000 -0.000 -0.000  0.000
      -0.000  0.000  0.000  1.000  0.000
      -0.000  0.000  1.000 -0.000  0.000
       1.000  0.000  0.000  0.000 -0.000
       0.000 -0.000 -0.000 -0.000  1.000
     occupation matrix ns (before diag.):
       0.922 -0.000 -0.000  0.000  0.000
      -0.000  0.972 -0.000  0.000  0.000
      -0.000 -0.000  0.972  0.000  0.000
       0.000  0.000  0.000  0.357 -0.000
       0.000  0.000  0.000 -0.000  0.979
     SPIN  2
     eigenvalues:
       0.944  0.961  0.983  0.983  0.987
     eigenvectors (columns):
       0.000  1.000 -0.000 -0.000  0.000
      -0.000  0.000  0.000  1.000  0.000
      -0.000  0.000  1.000 -0.000  0.000
       1.000 -0.000  0.000  0.000 -0.000
       0.000 -0.000 -0.000 -0.000  1.000
     occupation matrix ns (before diag.):
       0.961 -0.000 -0.000 -0.000  0.000
      -0.000  0.983 -0.000  0.000  0.000
      -0.000 -0.000  0.983  0.000  0.000
      -0.000  0.000  0.000  0.944 -0.000
       0.000  0.000  0.000 -0.000  0.987
     ------------------------ ATOM   21 ------------------------
     Tr[ns( 21)] (up, down, total) =   4.85941  4.20109  9.06050
     Atomic magnetic moment for atom  21 =   0.65832
     SPIN  1
     eigenvalues:
       0.944  0.961  0.983  0.983  0.987
     eigenvectors (columns):
       0.000  1.000 -0.000 -0.000  0.000
      -0.000  0.000  0.000  1.000  0.000
      -0.000  0.000  1.000 -0.000  0.000
       1.000 -0.000  0.000  0.000 -0.000
       0.000 -0.000 -0.000 -0.000  1.000
     occupation matrix ns (before diag.):
       0.961 -0.000 -0.000 -0.000  0.000
      -0.000  0.983 -0.000  0.000  0.000
      -0.000 -0.000  0.983  0.000  0.000
      -0.000  0.000  0.000  0.944 -0.000
       0.000  0.000  0.000 -0.000  0.987
     SPIN  2
     eigenvalues:
       0.357  0.922  0.972  0.972  0.979
     eigenvectors (columns):
       0.000  1.000 -0.000 -0.000  0.000
      -0.000  0.000  1.000 -0.000  0.000
      -0.000  0.000  0.000  1.000  0.000
       1.000 -0.000  0.000  0.000 -0.000
       0.000 -0.000 -0.000 -0.000  1.000
     occupation matrix ns (before diag.):
       0.922 -0.000 -0.000 -0.000  0.000
      -0.000  0.972 -0.000  0.000  0.000
      -0.000 -0.000  0.972  0.000  0.000
      -0.000  0.000  0.000  0.357 -0.000
       0.000  0.000  0.000 -0.000  0.979
     ------------------------ ATOM   23 ------------------------
     Tr[ns( 23)] (up, down, total) =   4.85940  4.20110  9.06050
     Atomic magnetic moment for atom  23 =   0.65830
     SPIN  1
     eigenvalues:
       0.944  0.961  0.983  0.983  0.987
     eigenvectors (columns):
      -0.000  1.000 -0.000 -0.000  0.000
      -0.000  0.000  0.359  0.934  0.000
      -0.000  0.000  0.934 -0.359  0.000
       1.000  0.000  0.000  0.000 -0.000
       0.000 -0.000 -0.000 -0.000  1.000
     occupation matrix ns (before diag.):
       0.961 -0.000 -0.000  0.000  0.000
      -0.000  0.983 -0.000  0.000  0.000
      -0.000 -0.000  0.983  0.000  0.000
       0.000  0.000  0.000  0.944 -0.000
       0.000  0.000  0.000 -0.000  0.987
     SPIN  2
     eigenvalues:
       0.357  0.922  0.972  0.972  0.979
     eigenvectors (columns):
      -0.000  1.000 -0.000 -0.000  0.000
      -0.000  0.000  0.353  0.936  0.000
      -0.000  0.000  0.936 -0.353  0.000
       1.000  0.000  0.000  0.000 -0.000
       0.000 -0.000 -0.000 -0.000  1.000
     occupation matrix ns (before diag.):
       0.922 -0.000 -0.000 -0.000  0.000
      -0.000  0.972 -0.000  0.000  0.000
      -0.000 -0.000  0.972  0.000  0.000
      -0.000  0.000  0.000  0.357 -0.000
       0.000  0.000  0.000 -0.000  0.979
     ------------------------ ATOM   24 ------------------------
     Tr[ns( 24)] (up, down, total) =   4.20098  4.85942  9.06040
     Atomic magnetic moment for atom  24 =  -0.65844
     SPIN  1
     eigenvalues:
       0.357  0.922  0.972  0.972  0.979
     eigenvectors (columns):
       0.000  1.000 -0.000 -0.000  0.000
      -0.000  0.000  0.343  0.939  0.000
      -0.000  0.000  0.939 -0.343  0.000
       1.000  0.000  0.000  0.000 -0.000
       0.000 -0.000 -0.000 -0.000  1.000
     occupation matrix ns (before diag.):
       0.922 -0.000 -0.000 -0.000  0.000
      -0.000  0.972 -0.000  0.000  0.000
      -0.000 -0.000  0.972  0.000  0.000
      -0.000  0.000  0.000  0.357 -0.000
       0.000  0.000  0.000 -0.000  0.979
     SPIN  2
     eigenvalues:
       0.944  0.961  0.983  0.983  0.987
     eigenvectors (columns):
      -0.000  1.000 -0.000 -0.000  0.000
      -0.000  0.000  0.313  0.950  0.000
      -0.000  0.000  0.950 -0.313  0.000
       1.000  0.000  0.000  0.000 -0.000
       0.000 -0.000 -0.000 -0.000  1.000
     occupation matrix ns (before diag.):
       0.961 -0.000 -0.000  0.000  0.000
      -0.000  0.983 -0.000  0.000  0.000
      -0.000 -0.000  0.983  0.000  0.000
       0.000  0.000  0.000  0.944 -0.000
       0.000  0.000  0.000 -0.000  0.987

     Number of occupied Hubbard levels =   72.4838

     negative rho (up, down):  3.840E-01 3.840E-01

     HUBBARD ENERGY =    0.4026  (Ry)

     total cpu time spent up to now is      105.3 secs

     total energy              =   -6553.94517053 Ry
     estimated scf accuracy    <       4.46483338 Ry

     total magnetization       =     0.00 Bohr mag/cell
     absolute magnetization    =     6.77 Bohr mag/cell

     iteration #  3     ecut=    60.00 Ry     beta= 0.10
     Davidson diagonalization with overlap

---- Real-time Memory Report at c_bands before calling an iterative solver
          2023 MiB given to the printing process from OS
             0 MiB allocation reported by mallinfo(arena+hblkhd)
          5789 MiB available memory on the node where the printing process lives
------------------
     ethr =  9.00E-04,  avg # of iterations =  5.2

     =================== HUBBARD OCCUPATIONS ===================
     ------------------------ ATOM   14 ------------------------
     Tr[ns( 14)] (up, down, total) =   4.89028  4.71753  9.60781
     Atomic magnetic moment for atom  14 =   0.17275
     SPIN  1
     eigenvalues:
       0.950  0.972  0.988  0.988  0.991
     eigenvectors (columns):
      -0.000  1.000 -0.000 -0.000  0.000
      -0.000  0.000  0.349  0.937  0.000
      -0.000  0.000  0.937 -0.349  0.000
       1.000  0.000  0.000  0.000 -0.000
       0.000 -0.000 -0.000 -0.000  1.000
     occupation matrix ns (before diag.):
       0.972 -0.000 -0.000  0.000  0.000
      -0.000  0.988 -0.000  0.000  0.000
      -0.000 -0.000  0.988  0.000  0.000
       0.000  0.000  0.000  0.950 -0.000
       0.000  0.000  0.000 -0.000  0.991
     SPIN  2
     eigenvalues:
       0.816  0.954  0.981  0.981  0.985
     eigenvectors (columns):
      -0.000  1.000 -0.000 -0.000  0.000
      -0.000  0.000  0.325  0.946  0.000
      -0.000  0.000  0.946 -0.325  0.000
       1.000  0.000  0.000  0.000 -0.000
       0.000 -0.000 -0.000 -0.000  1.000
     occupation matrix ns (before diag.):
       0.954 -0.000 -0.000  0.000  0.000
      -0.000  0.981 -0.000  0.000  0.000
      -0.000 -0.000  0.981  0.000  0.000
       0.000  0.000  0.000  0.816 -0.000
       0.000  0.000  0.000 -0.000  0.985
     ------------------------ ATOM   15 ------------------------
     Tr[ns( 15)] (up, down, total) =   4.71756  4.89029  9.60786
     Atomic magnetic moment for atom  15 =  -0.17273
     SPIN  1
     eigenvalues:
       0.816  0.954  0.981  0.981  0.985
     eigenvectors (columns):
      -0.000  1.000 -0.000 -0.000  0.000
      -0.000  0.000  0.297  0.955  0.000
      -0.000  0.000  0.955 -0.297  0.000
       1.000  0.000  0.000  0.000 -0.000
       0.000 -0.000 -0.000 -0.000  1.000
     occupation matrix ns (before diag.):
       0.954 -0.000 -0.000  0.000  0.000
      -0.000  0.981 -0.000  0.000  0.000
      -0.000 -0.000  0.981  0.000  0.000
       0.000  0.000  0.000  0.816 -0.000
       0.000  0.000  0.000 -0.000  0.985
     SPIN  2
     eigenvalues:
       0.950  0.972  0.988  0.988  0.991
     eigenvectors (columns):
      -0.000  1.000 -0.000 -0.000  0.000
      -0.000  0.000  0.350  0.937  0.000
      -0.000  0.000  0.937 -0.350  0.000
       1.000  0.000  0.000  0.000 -0.000
       0.000 -0.000 -0.000 -0.000  1.000
     occupation matrix ns (before diag.):
       0.972 -0.000 -0.000  0.000  0.000
      -0.000  0.988 -0.000  0.000  0.000
      -0.000 -0.000  0.988  0.000  0.000
       0.000  0.000  0.000  0.950 -0.000
       0.000  0.000  0.000 -0.000  0.991
     ------------------------ ATOM   17 ------------------------
     Tr[ns( 17)] (up, down, total) =   4.71749  4.89026  9.60775
     Atomic magnetic moment for atom  17 =  -0.17277
     SPIN  1
     eigenvalues:
       0.816  0.954  0.981  0.981  0.985
     eigenvectors (columns):
       0.000  1.000 -0.000 -0.000  0.000
      -0.000  0.000  0.000  1.000  0.000
      -0.000  0.000  1.000 -0.000  0.000
       1.000 -0.000  0.000  0.000 -0.000
       0.000 -0.000 -0.000 -0.000  1.000
     occupation matrix ns (before diag.):
       0.954 -0.000 -0.000 -0.000  0.000
      -0.000  0.981 -0.000  0.000  0.000
      -0.000 -0.000  0.981  0.000  0.000
      -0.000  0.000  0.000  0.816 -0.000
       0.000  0.000  0.000 -0.000  0.985
     SPIN  2
     eigenvalues:
       0.950  0.972  0.988  0.988  0.991
     eigenvectors (columns):
      -0.000  1.000 -0.000 -0.000  0.000
      -0.000  0.000  1.000 -0.000  0.000
      -0.000  0.000  0.000  1.000  0.000
       1.000  0.000  0.000  0.000 -0.000
       0.000 -0.000 -0.000 -0.000  1.000
     occupation matrix ns (before diag.):
       0.972 -0.000 -0.000  0.000  0.000
      -0.000  0.988 -0.000  0.000  0.000
      -0.000 -0.000  0.988  0.000  0.000
       0.000  0.000  0.000  0.950 -0.000
       0.000  0.000  0.000 -0.000  0.991
     ------------------------ ATOM   18 ------------------------
     Tr[ns( 18)] (up, down, total) =   4.89027  4.71743  9.60770
     Atomic magnetic moment for atom  18 =   0.17285
     SPIN  1
     eigenvalues:
       0.950  0.972  0.988  0.988  0.991
     eigenvectors (columns):
      -0.000  1.000 -0.000 -0.000  0.000
      -0.000  0.000  1.000 -0.000  0.000
      -0.000  0.000  0.000  1.000  0.000
       1.000  0.000  0.000  0.000 -0.000
       0.000 -0.000 -0.000 -0.000  1.000
     occupation matrix ns (before diag.):
       0.972 -0.000 -0.000  0.000  0.000
      -0.000  0.988 -0.000  0.000  0.000
      -0.000 -0.000  0.988  0.000  0.000
       0.000  0.000  0.000  0.950 -0.000
       0.000  0.000  0.000 -0.000  0.991
     SPIN  2
     eigenvalues:
       0.816  0.954  0.981  0.981  0.985
     eigenvectors (columns):
       0.000  1.000 -0.000 -0.000  0.000
      -0.000  0.000  0.000  1.000  0.000
      -0.000  0.000  1.000 -0.000  0.000
       1.000 -0.000  0.000  0.000 -0.000
       0.000 -0.000 -0.000 -0.000  1.000
     occupation matrix ns (before diag.):
       0.954 -0.000 -0.000 -0.000  0.000
      -0.000  0.981 -0.000  0.000  0.000
      -0.000 -0.000  0.981  0.000  0.000
      -0.000  0.000  0.000  0.816 -0.000
       0.000  0.000  0.000 -0.000  0.985
     ------------------------ ATOM   20 ------------------------
     Tr[ns( 20)] (up, down, total) =   4.71749  4.89026  9.60775
     Atomic magnetic moment for atom  20 =  -0.17277
     SPIN  1
     eigenvalues:
       0.816  0.954  0.981  0.981  0.985
     eigenvectors (columns):
      -0.000  1.000 -0.000 -0.000  0.000
      -0.000  0.000  1.000 -0.000  0.000
      -0.000  0.000  0.000  1.000  0.000
       1.000  0.000  0.000  0.000 -0.000
       0.000 -0.000 -0.000 -0.000  1.000
     occupation matrix ns (before diag.):
       0.954 -0.000 -0.000  0.000  0.000
      -0.000  0.981 -0.000  0.000  0.000
      -0.000 -0.000  0.981  0.000  0.000
       0.000  0.000  0.000  0.816 -0.000
       0.000  0.000  0.000 -0.000  0.985
     SPIN  2
     eigenvalues:
       0.950  0.972  0.988  0.988  0.991
     eigenvectors (columns):
       0.000  1.000 -0.000 -0.000  0.000
      -0.000  0.000  0.000  1.000  0.000
      -0.000  0.000  1.000 -0.000  0.000
       1.000 -0.000  0.000  0.000 -0.000
       0.000 -0.000 -0.000 -0.000  1.000
     occupation matrix ns (before diag.):
       0.972 -0.000 -0.000 -0.000  0.000
      -0.000  0.988 -0.000  0.000  0.000
      -0.000 -0.000  0.988  0.000  0.000
      -0.000  0.000  0.000  0.950 -0.000
       0.000  0.000  0.000 -0.000  0.991
     ------------------------ ATOM   21 ------------------------
     Tr[ns( 21)] (up, down, total) =   4.89027  4.71743  9.60770
     Atomic magnetic moment for atom  21 =   0.17285
     SPIN  1
     eigenvalues:
       0.950  0.972  0.988  0.988  0.991
     eigenvectors (columns):
       0.000  1.000 -0.000 -0.000  0.000
      -0.000  0.000  0.000  1.000  0.000
      -0.000  0.000  1.000 -0.000  0.000
       1.000 -0.000  0.000  0.000 -0.000
       0.000 -0.000 -0.000 -0.000  1.000
     occupation matrix ns (before diag.):
       0.972 -0.000 -0.000 -0.000  0.000
      -0.000  0.988 -0.000  0.000  0.000
      -0.000 -0.000  0.988  0.000  0.000
      -0.000  0.000  0.000  0.950 -0.000
       0.000  0.000  0.000 -0.000  0.991
     SPIN  2
     eigenvalues:
       0.816  0.954  0.981  0.981  0.985
     eigenvectors (columns):
      -0.000  1.000 -0.000 -0.000  0.000
      -0.000  0.000  1.000 -0.000  0.000
      -0.000  0.000  0.000  1.000  0.000
       1.000  0.000  0.000  0.000 -0.000
       0.000 -0.000 -0.000 -0.000  1.000
     occupation matrix ns (before diag.):
       0.954 -0.000 -0.000  0.000  0.000
      -0.000  0.981 -0.000  0.000  0.000
      -0.000 -0.000  0.981  0.000  0.000
       0.000  0.000  0.000  0.816 -0.000
       0.000  0.000  0.000 -0.000  0.985
     ------------------------ ATOM   23 ------------------------
     Tr[ns( 23)] (up, down, total) =   4.89026  4.71745  9.60772
     Atomic magnetic moment for atom  23 =   0.17281
     SPIN  1
     eigenvalues:
       0.950  0.972  0.988  0.988  0.991
     eigenvectors (columns):
      -0.000  1.000 -0.000 -0.000  0.000
      -0.000  0.000  0.336  0.942  0.000
      -0.000  0.000  0.942 -0.336  0.000
       1.000  0.000  0.000  0.000 -0.000
       0.000 -0.000 -0.000 -0.000  1.000
     occupation matrix ns (before diag.):
       0.972 -0.000 -0.000  0.000  0.000
      -0.000  0.988 -0.000  0.000  0.000
      -0.000 -0.000  0.988  0.000  0.000
       0.000  0.000  0.000  0.950 -0.000
       0.000  0.000  0.000 -0.000  0.991
     SPIN  2
     eigenvalues:
       0.816  0.954  0.981  0.981  0.985
     eigenvectors (columns):
      -0.000  1.000 -0.000 -0.000  0.000
      -0.000  0.000  0.321  0.947  0.000
      -0.000  0.000  0.947 -0.321  0.000
       1.000  0.000  0.000  0.000 -0.000
       0.000 -0.000 -0.000 -0.000  1.000
     occupation matrix ns (before diag.):
       0.954 -0.000 -0.000  0.000  0.000
      -0.000  0.981 -0.000  0.000  0.000
      -0.000 -0.000  0.981  0.000  0.000
       0.000  0.000  0.000  0.816 -0.000
       0.000  0.000  0.000 -0.000  0.985
     ------------------------ ATOM   24 ------------------------
     Tr[ns( 24)] (up, down, total) =   4.71751  4.89030  9.60781
     Atomic magnetic moment for atom  24 =  -0.17279
     SPIN  1
     eigenvalues:
       0.816  0.954  0.981  0.981  0.985
     eigenvectors (columns):
      -0.000  1.000 -0.000 -0.000  0.000
      -0.000  0.000  0.365  0.931  0.000
      -0.000  0.000  0.931 -0.365  0.000
       1.000  0.000  0.000  0.000 -0.000
       0.000 -0.000 -0.000 -0.000  1.000
     occupation matrix ns (before diag.):
       0.954 -0.000 -0.000  0.000  0.000
      -0.000  0.981 -0.000  0.000  0.000
      -0.000 -0.000  0.981  0.000  0.000
       0.000  0.000  0.000  0.816 -0.000
       0.000  0.000  0.000 -0.000  0.985
     SPIN  2
     eigenvalues:
       0.950  0.972  0.988  0.988  0.991
     eigenvectors (columns):
      -0.000  1.000 -0.000 -0.000  0.000
      -0.000  0.000  0.348  0.938  0.000
      -0.000  0.000  0.938 -0.348  0.000
       1.000  0.000  0.000  0.000 -0.000
       0.000 -0.000 -0.000 -0.000  1.000
     occupation matrix ns (before diag.):
       0.972 -0.000 -0.000  0.000  0.000
      -0.000  0.988 -0.000  0.000  0.000
      -0.000 -0.000  0.988  0.000  0.000
       0.000  0.000  0.000  0.950 -0.000
       0.000  0.000  0.000 -0.000  0.991

     Number of occupied Hubbard levels =   76.8621

     negative rho (up, down):  3.848E-01 3.848E-01

     HUBBARD ENERGY =    0.4044  (Ry)

     total cpu time spent up to now is      150.6 secs

     total energy              =   -6554.50774414 Ry
     estimated scf accuracy    <       5.22900560 Ry

     total magnetization       =     0.00 Bohr mag/cell
     absolute magnetization    =     2.50 Bohr mag/cell

     iteration #  4     ecut=    60.00 Ry     beta= 0.10
     Davidson diagonalization with overlap

---- Real-time Memory Report at c_bands before calling an iterative solver
          2031 MiB given to the printing process from OS
             0 MiB allocation reported by mallinfo(arena+hblkhd)
          5642 MiB available memory on the node where the printing process lives
------------------
     ethr =  9.00E-04,  avg # of iterations =  1.0

     =================== HUBBARD OCCUPATIONS ===================
     ------------------------ ATOM   14 ------------------------
     Tr[ns( 14)] (up, down, total) =   4.87742  4.35845  9.23587
     Atomic magnetic moment for atom  14 =   0.51897
     SPIN  1
     eigenvalues:
       0.943  0.969  0.988  0.988  0.990
     eigenvectors (columns):
      -0.000  1.000 -0.000 -0.000  0.000
      -0.000  0.000  0.322  0.947  0.000
      -0.000  0.000  0.947 -0.322  0.000
       1.000  0.000  0.000  0.000 -0.000
       0.000 -0.000 -0.000 -0.000  1.000
     occupation matrix ns (before diag.):
       0.969 -0.000 -0.000  0.000  0.000
      -0.000  0.988 -0.000  0.000  0.000
      -0.000 -0.000  0.988  0.000  0.000
       0.000  0.000  0.000  0.943 -0.000
       0.000  0.000  0.000 -0.000  0.990
     SPIN  2
     eigenvalues:
       0.472  0.942  0.980  0.980  0.984
     eigenvectors (columns):
      -0.000  1.000 -0.000 -0.000  0.000
      -0.000  0.000  0.292  0.956  0.000
      -0.000  0.000  0.956 -0.292  0.000
       1.000  0.000  0.000  0.000 -0.000
       0.000 -0.000 -0.000 -0.000  1.000
     occupation matrix ns (before diag.):
       0.942 -0.000 -0.000  0.000  0.000
      -0.000  0.980 -0.000  0.000  0.000
      -0.000 -0.000  0.980  0.000  0.000
       0.000  0.000  0.000  0.472 -0.000
       0.000  0.000  0.000 -0.000  0.984
     ------------------------ ATOM   15 ------------------------
     Tr[ns( 15)] (up, down, total) =   4.35842  4.87744  9.23586
     Atomic magnetic moment for atom  15 =  -0.51901
     SPIN  1
     eigenvalues:
       0.472  0.942  0.980  0.980  0.984
     eigenvectors (columns):
      -0.000  1.000 -0.000 -0.000  0.000
      -0.000  0.000  0.329  0.944  0.000
      -0.000  0.000  0.944 -0.329  0.000
       1.000  0.000  0.000  0.000 -0.000
       0.000 -0.000 -0.000 -0.000  1.000
     occupation matrix ns (before diag.):
       0.942 -0.000 -0.000  0.000  0.000
      -0.000  0.980 -0.000  0.000  0.000
      -0.000 -0.000  0.980  0.000  0.000
       0.000  0.000  0.000  0.472 -0.000
       0.000  0.000  0.000 -0.000  0.984
     SPIN  2
     eigenvalues:
       0.943  0.969  0.988  0.988  0.990
     eigenvectors (columns):
      -0.000  1.000 -0.000 -0.000  0.000
      -0.000  0.000  0.343  0.939  0.000
      -0.000  0.000  0.939 -0.343  0.000
       1.000  0.000  0.000  0.000 -0.000
       0.000 -0.000 -0.000 -0.000  1.000
     occupation matrix ns (before diag.):
       0.969 -0.000 -0.000  0.000  0.000
      -0.000  0.988 -0.000  0.000  0.000
      -0.000 -0.000  0.988  0.000  0.000
       0.000  0.000  0.000  0.943 -0.000
       0.000  0.000  0.000 -0.000  0.990
     ------------------------ ATOM   17 ------------------------
     Tr[ns( 17)] (up, down, total) =   4.35844  4.87742  9.23586
     Atomic magnetic moment for atom  17 =  -0.51898
     SPIN  1
     eigenvalues:
       0.472  0.942  0.980  0.980  0.984
     eigenvectors (columns):
       0.000  1.000 -0.000 -0.000  0.000
      -0.000  0.000  0.000  1.000  0.000
      -0.000  0.000  1.000 -0.000  0.000
       1.000 -0.000  0.000  0.000 -0.000
       0.000 -0.000 -0.000 -0.000  1.000
     occupation matrix ns (before diag.):
       0.942 -0.000 -0.000 -0.000  0.000
      -0.000  0.980 -0.000  0.000  0.000
      -0.000 -0.000  0.980  0.000  0.000
      -0.000  0.000  0.000  0.472 -0.000
       0.000  0.000  0.000 -0.000  0.984
     SPIN  2
     eigenvalues:
       0.943  0.969  0.988  0.988  0.990
     eigenvectors (columns):
      -0.000  1.000 -0.000 -0.000  0.000
      -0.000  0.000  1.000 -0.000  0.000
      -0.000  0.000  0.000  1.000  0.000
       1.000  0.000  0.000  0.000 -0.000
       0.000 -0.000 -0.000 -0.000  1.000
     occupation matrix ns (before diag.):
       0.969 -0.000 -0.000  0.000  0.000
      -0.000  0.988 -0.000  0.000  0.000
      -0.000 -0.000  0.988  0.000  0.000
       0.000  0.000  0.000  0.943 -0.000
       0.000  0.000  0.000 -0.000  0.990
     ------------------------ ATOM   18 ------------------------
     Tr[ns( 18)] (up, down, total) =   4.87744  4.35842  9.23585
     Atomic magnetic moment for atom  18 =   0.51902
     SPIN  1
     eigenvalues:
       0.943  0.969  0.988  0.988  0.990
     eigenvectors (columns):
      -0.000  1.000 -0.000 -0.000  0.000
      -0.000  0.000  1.000 -0.000  0.000
      -0.000  0.000  0.000  1.000  0.000
       1.000  0.000  0.000  0.000 -0.000
       0.000 -0.000 -0.000 -0.000  1.000
     occupation matrix ns (before diag.):
       0.969 -0.000 -0.000  0.000  0.000
      -0.000  0.988 -0.000  0.000  0.000
      -0.000 -0.000  0.988  0.000  0.000
       0.000  0.000  0.000  0.943 -0.000
       0.000  0.000  0.000 -0.000  0.990
     SPIN  2
     eigenvalues:
       0.472  0.942  0.980  0.980  0.984
     eigenvectors (columns):
      -0.000  1.000 -0.000 -0.000  0.000
      -0.000  0.000  1.000 -0.000  0.000
      -0.000  0.000  0.000  1.000  0.000
       1.000  0.000  0.000  0.000 -0.000
       0.000 -0.000 -0.000 -0.000  1.000
     occupation matrix ns (before diag.):
       0.942 -0.000 -0.000  0.000  0.000
      -0.000  0.980 -0.000  0.000  0.000
      -0.000 -0.000  0.980  0.000  0.000
       0.000  0.000  0.000  0.472 -0.000
       0.000  0.000  0.000 -0.000  0.984
     ------------------------ ATOM   20 ------------------------
     Tr[ns( 20)] (up, down, total) =   4.35844  4.87742  9.23586
     Atomic magnetic moment for atom  20 =  -0.51898
     SPIN  1
     eigenvalues:
       0.472  0.942  0.980  0.980  0.984
     eigenvectors (columns):
      -0.000  1.000 -0.000 -0.000  0.000
      -0.000  0.000  1.000 -0.000  0.000
      -0.000  0.000  0.000  1.000  0.000
       1.000  0.000  0.000  0.000 -0.000
       0.000 -0.000 -0.000 -0.000  1.000
     occupation matrix ns (before diag.):
       0.942 -0.000 -0.000  0.000  0.000
      -0.000  0.980 -0.000  0.000  0.000
      -0.000 -0.000  0.980  0.000  0.000
       0.000  0.000  0.000  0.472 -0.000
       0.000  0.000  0.000 -0.000  0.984
     SPIN  2
     eigenvalues:
       0.943  0.969  0.988  0.988  0.990
     eigenvectors (columns):
       0.000  1.000 -0.000 -0.000  0.000
      -0.000  0.000  0.000  1.000  0.000
      -0.000  0.000  1.000 -0.000  0.000
       1.000 -0.000  0.000  0.000 -0.000
       0.000 -0.000 -0.000 -0.000  1.000
     occupation matrix ns (before diag.):
       0.969 -0.000 -0.000 -0.000  0.000
      -0.000  0.988 -0.000  0.000  0.000
      -0.000 -0.000  0.988  0.000  0.000
      -0.000  0.000  0.000  0.943 -0.000
       0.000  0.000  0.000 -0.000  0.990
     ------------------------ ATOM   21 ------------------------
     Tr[ns( 21)] (up, down, total) =   4.87744  4.35842  9.23585
     Atomic magnetic moment for atom  21 =   0.51902
     SPIN  1
     eigenvalues:
       0.943  0.969  0.988  0.988  0.990
     eigenvectors (columns):
       0.000  1.000 -0.000 -0.000  0.000
      -0.000  0.000  0.000  1.000  0.000
      -0.000  0.000  1.000 -0.000  0.000
       1.000 -0.000  0.000  0.000 -0.000
       0.000 -0.000 -0.000 -0.000  1.000
     occupation matrix ns (before diag.):
       0.969 -0.000 -0.000 -0.000  0.000
      -0.000  0.988 -0.000  0.000  0.000
      -0.000 -0.000  0.988  0.000  0.000
      -0.000  0.000  0.000  0.943 -0.000
       0.000  0.000  0.000 -0.000  0.990
     SPIN  2
     eigenvalues:
       0.472  0.942  0.980  0.980  0.984
     eigenvectors (columns):
       0.000  1.000 -0.000 -0.000  0.000
      -0.000  0.000  0.000  1.000  0.000
      -0.000  0.000  1.000 -0.000  0.000
       1.000 -0.000  0.000  0.000 -0.000
       0.000 -0.000 -0.000 -0.000  1.000
     occupation matrix ns (before diag.):
       0.942 -0.000 -0.000 -0.000  0.000
      -0.000  0.980 -0.000  0.000  0.000
      -0.000 -0.000  0.980  0.000  0.000
      -0.000  0.000  0.000  0.472 -0.000
       0.000  0.000  0.000 -0.000  0.984
     ------------------------ ATOM   23 ------------------------
     Tr[ns( 23)] (up, down, total) =   4.87743  4.35844  9.23587
     Atomic magnetic moment for atom  23 =   0.51898
     SPIN  1
     eigenvalues:
       0.943  0.969  0.988  0.988  0.990
     eigenvectors (columns):
      -0.000  1.000 -0.000 -0.000  0.000
      -0.000  0.000  0.318  0.948  0.000
      -0.000  0.000  0.948 -0.318  0.000
       1.000  0.000  0.000  0.000 -0.000
       0.000 -0.000 -0.000 -0.000  1.000
     occupation matrix ns (before diag.):
       0.969 -0.000 -0.000  0.000  0.000
      -0.000  0.988 -0.000  0.000  0.000
      -0.000 -0.000  0.988  0.000  0.000
       0.000  0.000  0.000  0.943 -0.000
       0.000  0.000  0.000 -0.000  0.990
     SPIN  2
     eigenvalues:
       0.472  0.942  0.980  0.980  0.984
     eigenvectors (columns):
      -0.000  1.000 -0.000 -0.000  0.000
      -0.000  0.000  0.360  0.933  0.000
      -0.000  0.000  0.933 -0.360  0.000
       1.000  0.000  0.000  0.000 -0.000
       0.000 -0.000 -0.000 -0.000  1.000
     occupation matrix ns (before diag.):
       0.942 -0.000 -0.000  0.000  0.000
      -0.000  0.980 -0.000  0.000  0.000
      -0.000 -0.000  0.980  0.000  0.000
       0.000  0.000  0.000  0.472 -0.000
       0.000  0.000  0.000 -0.000  0.984
     ------------------------ ATOM   24 ------------------------
     Tr[ns( 24)] (up, down, total) =   4.35843  4.87744  9.23587
     Atomic magnetic moment for atom  24 =  -0.51901
     SPIN  1
     eigenvalues:
       0.472  0.942  0.980  0.980  0.984
     eigenvectors (columns):
      -0.000  1.000 -0.000 -0.000  0.000
      -0.000  0.000  0.311  0.950  0.000
      -0.000  0.000  0.950 -0.311  0.000
       1.000 -0.000  0.000  0.000 -0.000
       0.000 -0.000 -0.000 -0.000  1.000
     occupation matrix ns (before diag.):
       0.942 -0.000 -0.000  0.000  0.000
      -0.000  0.980 -0.000  0.000  0.000
      -0.000 -0.000  0.980  0.000  0.000
       0.000  0.000  0.000  0.472 -0.000
       0.000  0.000  0.000 -0.000  0.984
     SPIN  2
     eigenvalues:
       0.943  0.969  0.988  0.988  0.990
     eigenvectors (columns):
      -0.000  1.000 -0.000 -0.000  0.000
      -0.000  0.000  0.329  0.944  0.000
      -0.000  0.000  0.944 -0.329  0.000
       1.000  0.000  0.000  0.000 -0.000
       0.000 -0.000 -0.000 -0.000  1.000
     occupation matrix ns (before diag.):
       0.969 -0.000 -0.000  0.000  0.000
      -0.000  0.988 -0.000  0.000  0.000
      -0.000 -0.000  0.988  0.000  0.000
       0.000  0.000  0.000  0.943 -0.000
       0.000  0.000  0.000 -0.000  0.990

     Number of occupied Hubbard levels =   73.8869

     negative rho (up, down):  3.799E-01 3.799E-01

     HUBBARD ENERGY =    0.3984  (Ry)

     total cpu time spent up to now is      188.2 secs

     total energy              =   -6554.61759574 Ry
     estimated scf accuracy    <       0.89914025 Ry

     total magnetization       =     0.00 Bohr mag/cell
     absolute magnetization    =     5.79 Bohr mag/cell

     iteration #  5     ecut=    60.00 Ry     beta= 0.10
     Davidson diagonalization with overlap

---- Real-time Memory Report at c_bands before calling an iterative solver
          2035 MiB given to the printing process from OS
             0 MiB allocation reported by mallinfo(arena+hblkhd)
          5756 MiB available memory on the node where the printing process lives
------------------
     ethr =  1.81E-04,  avg # of iterations =  7.2

     =================== HUBBARD OCCUPATIONS ===================
     ------------------------ ATOM   14 ------------------------
     Tr[ns( 14)] (up, down, total) =   4.87789  4.54043  9.41832
     Atomic magnetic moment for atom  14 =   0.33746
     SPIN  1
     eigenvalues:
       0.944  0.969  0.987  0.987  0.990
     eigenvectors (columns):
      -0.000  1.000 -0.000 -0.000  0.000
      -0.000  0.000  0.365  0.931  0.000
      -0.000  0.000  0.931 -0.365  0.000
       1.000  0.000  0.000  0.000 -0.000
       0.000 -0.000 -0.000 -0.000  1.000
     occupation matrix ns (before diag.):
       0.969 -0.000 -0.000  0.000  0.000
      -0.000  0.987 -0.000  0.000  0.000
      -0.000 -0.000  0.987  0.000  0.000
       0.000  0.000  0.000  0.944 -0.000
       0.000  0.000  0.000 -0.000  0.990
     SPIN  2
     eigenvalues:
       0.648  0.947  0.981  0.981  0.985
     eigenvectors (columns):
      -0.000  1.000 -0.000 -0.000  0.000
      -0.000  0.000  0.309  0.951  0.000
      -0.000  0.000  0.951 -0.309  0.000
       1.000  0.000  0.000  0.000 -0.000
       0.000 -0.000 -0.000 -0.000  1.000
     occupation matrix ns (before diag.):
       0.947 -0.000 -0.000  0.000  0.000
      -0.000  0.981 -0.000  0.000  0.000
      -0.000 -0.000  0.981  0.000  0.000
       0.000  0.000  0.000  0.648 -0.000
       0.000  0.000  0.000 -0.000  0.985
     ------------------------ ATOM   15 ------------------------
     Tr[ns( 15)] (up, down, total) =   4.54048  4.87789  9.41837
     Atomic magnetic moment for atom  15 =  -0.33741
     SPIN  1
     eigenvalues:
       0.648  0.947  0.981  0.981  0.985
     eigenvectors (columns):
      -0.000  1.000 -0.000 -0.000  0.000
      -0.000  0.000  0.268  0.963  0.000
[...]
     7.8160   7.9654   7.9654   8.2189   8.2682   8.2754   8.2754   8.3431
     8.3431   8.3962   8.3963   8.4145   8.6138   8.6138   8.6590   8.6715
     8.6715   8.7024   8.7618   8.8100   8.8825   8.8825   8.9312   8.9313
     8.9773   8.9910   8.9910   8.9950   9.0063   9.0063   9.0426   9.0465
     9.0465   9.0632   9.0632   9.0665   9.1552   9.1739   9.2104   9.2104
     9.3658   9.3658   9.3777   9.4984   9.5433   9.5434   9.6310   9.6310
     9.7033   9.7033   9.7639   9.8541   9.8543   9.9200   9.9200  10.0748
    10.0748  10.1360  10.2056  10.2056  10.6403  10.6403  10.7305  10.7305
    10.8468  10.8469  12.5783  12.5783  13.0987  13.1720  13.4689  13.6338
    13.6338  13.7746  13.8182  13.8847  14.0115  15.0877  15.1046  15.1046
    15.2077  15.2078  15.2736  15.6253  15.6564  15.7970  15.7970  16.0001
    16.0699  16.3435  16.3435  16.4445  16.4445  16.4794  16.4794  16.4899
    16.4899  16.5228  16.5228  16.5239  16.6873  16.6873  17.1420  17.1420
    17.1723  17.2071  17.2071  17.4191  17.4191  17.7141  17.9123  18.0939
    18.0939  18.2600

     occupation numbers 
     1.0000   1.0000   1.0000   1.0000   1.0000   1.0000   1.0000   1.0000
     1.0000   1.0000   1.0000   1.0000   1.0000   1.0000   1.0000   1.0000
     1.0000   1.0000   1.0000   1.0000   1.0000   1.0000   1.0000   1.0000
     1.0000   1.0000   1.0000   1.0000   1.0000   1.0000   1.0000   1.0000
     1.0000   1.0000   1.0000   1.0000   1.0000   1.0000   1.0000   1.0000
     1.0000   1.0000   1.0000   1.0000   1.0000   1.0000   1.0000   1.0000
     1.0000   1.0000   1.0000   1.0000   1.0000   1.0000   1.0000   1.0000
     1.0000   1.0000   1.0000   1.0000   1.0000   1.0000   1.0000   1.0000
     1.0000   1.0000   1.0000   1.0000   1.0000   1.0000   1.0000   1.0000
     1.0000   1.0000   1.0000   1.0000   1.0000   1.0000   1.0000   1.0000
     1.0000   1.0000   1.0000   1.0000   1.0000   1.0000   1.0000   1.0000
     1.0000   1.0000   1.0000   1.0000   1.0000   1.0000   1.0000   1.0000
     1.0000   1.0000   1.0000   1.0000   1.0000   1.0000   1.0000   1.0000
     1.0000   1.0000   1.0000   1.0000   1.0000   1.0000   1.0000   1.0000
     1.0000   1.0000   1.0000   1.0000   1.0000   1.0000   1.0000   1.0000
     1.0000   1.0000   1.0000   1.0000   1.0000   1.0000   1.0000   1.0000
     1.0000   1.0000   1.0000   1.0000   1.0000   1.0000   1.0000   1.0000
     1.0000   1.0000   1.0000   1.0000   1.0000   1.0000   1.0000   1.0000
     1.0000   1.0000   1.0000   1.0000   1.0000   1.0000   1.0000   1.0000
     1.0000   1.0000   1.0000   1.0000   1.0000   1.0000   1.0000   1.0000
     1.0000   1.0000   1.0000   1.0000   1.0000   1.0000   1.0000   1.0000
     1.0000   1.0000   1.0000   1.0000   1.0000   1.0000   1.0000   1.0000
     1.0000   1.0000   1.0000   1.0000   1.0000   1.0000   1.0000   1.0000
     1.0000   1.0000   1.0000   1.0000   1.0000   1.0000   1.0000   1.0000
     1.0000   1.0000   1.0000   1.0000   1.0000   1.0000   1.0000   1.0000
     1.0000   1.0000   1.0000   1.0000   1.0000   1.0000   1.0000   1.0000
     1.0000   1.0000   1.0000   1.0000   1.0000   1.0000   1.0000   1.0000
     1.0000   1.0000   1.0000   1.0000   1.0000   1.0000   1.0000   1.0000
     1.0000   1.0000   1.0000   1.0000   1.0000   1.0000   1.0000   1.0000
     1.0000   1.0000   1.0000   1.0000   1.0000   1.0000   1.0000   1.0000
     1.0000   1.0000   1.0000   1.0000   1.0335   1.0335   0.8450   0.8450
     0.1901   0.1899  -0.0000  -0.0000  -0.0000  -0.0000  -0.0000  -0.0000
    -0.0000  -0.0000  -0.0000  -0.0000  -0.0000  -0.0000  -0.0000  -0.0000
    -0.0000  -0.0000  -0.0000  -0.0000  -0.0000  -0.0000  -0.0000  -0.0000
    -0.0000  -0.0000  -0.0000  -0.0000  -0.0000  -0.0000  -0.0000  -0.0000
    -0.0000  -0.0000  -0.0000  -0.0000  -0.0000  -0.0000  -0.0000  -0.0000
    -0.0000  -0.0000  -0.0000  -0.0000  -0.0000  -0.0000  -0.0000  -0.0000
    -0.0000  -0.0000

 ------ SPIN DOWN ----------


          k = 0.0000 0.0000 0.0000 ( 35361 PWs)   bands (ev):

  -100.5700-100.5700-100.5695-100.5695-100.1560-100.1560-100.1558-100.1558
  -100.0798-100.0798-100.0797-100.0797 -58.6123 -58.6123 -58.6123 -58.6123
   -58.6118 -58.6118 -58.6118 -58.6118 -58.2028 -58.2028 -58.2026 -58.2026
   -58.0519 -58.0519 -58.0519 -58.0519 -58.0518 -58.0518 -58.0518 -58.0518
   -58.0232 -58.0232 -58.0229 -58.0229 -57.9066 -57.9066 -57.9066 -57.9066
   -57.9064 -57.9064 -57.9063 -57.9063 -57.7447 -57.7447 -57.7446 -57.7446
   -29.9623 -29.9444 -29.9444 -29.9270 -15.3414 -15.3345 -15.1950 -15.1950
   -15.1898 -15.1898 -15.0826 -15.0772 -10.7771 -10.7771 -10.7600 -10.7068
   -10.7068 -10.4472 -10.4472 -10.1765 -10.0450 -10.0450 -10.0206 -10.0206
    -7.5860  -6.8718  -6.8718  -6.6900  -6.6900  -6.5884  -6.5884  -6.4976
    -6.4976  -6.4043  -6.2652  -6.2345  -6.1662  -6.1380  -6.1380  -6.0311
    -6.0311  -5.9578  -5.9247  -5.9247  -5.8908  -5.8273  -5.8273  -5.8077
    -1.0765  -1.0765  -1.0634  -1.0634  -0.6898  -0.6752  -0.6694  -0.6694
    -0.4975  -0.4861  -0.4861  -0.4455  -0.3380  -0.3380  -0.2465  -0.2465
    -0.1706  -0.1706  -0.1672  -0.1672   0.0842   0.0842   0.0923   0.0923
     3.1628   3.7861   4.2218   4.2221   4.6296   4.6296   4.8235   4.9175
     4.9660   5.5553   5.5555   5.5555   5.5588   5.6133   5.6472   5.6472
     5.6860   5.7035   5.7037   5.7040   5.7040   5.9329   5.9329   6.0437
     6.0437   6.2471   6.2471   6.2714   6.2715   6.3714   6.3714   6.5567
     6.5567   6.6387   6.6387   6.8657   6.9137   6.9137   6.9203   6.9203
     7.0297   7.0556   7.0889   7.0889   7.1681   7.2049   7.2049   7.2105
     7.2704   7.2704   7.4834   7.4834   7.5125   7.5125   7.5164   7.5164
     7.6193   7.6439   7.6439   7.6707   7.6707   7.7577   7.7577   7.7915
     7.7915   7.8821   7.9508   7.9508   8.2460   8.2460   8.2726   8.2826
     8.2826   8.3120   8.3414   8.3414   8.3998   8.6537   8.6537   8.7378
     8.7378   8.7610   8.7817   8.8027   8.8027   8.8100   8.8100   8.9472
     8.9473   8.9723   8.9724   9.0050   9.0050   9.0343   9.0425   9.0694
     9.1552   9.1739   9.2067   9.2098   9.2099   9.2880   9.3441   9.3441
     9.3706   9.4636   9.4636   9.4935   9.5162   9.5162   9.6235   9.6235
     9.6336   9.6336   9.7639   9.8069   9.8069   9.8665   9.8668  10.0050
    10.1961  10.1961  10.2065  10.2065  10.6348  10.6348  10.7317  10.7317
    10.8814  10.8815  12.5241  12.5241  13.0987  13.1588  13.1720  13.5207
    13.6208  13.6208  13.7965  14.0058  14.1193  15.0634  15.1643  15.1644
    15.2936  15.3002  15.3002  15.7965  15.7965  15.8335  16.0002  16.2466
    16.2466  16.3623  16.3623  16.4638  16.4705  16.4705  16.4939  16.5328
    16.5328  16.5758  16.5758  16.6202  16.7056  16.7056  16.7618  17.0380
    17.1573  17.1574  17.6042  17.6043  17.7476  17.7476  17.9245  17.9245
    17.9550  17.9550

     occupation numbers 
     1.0000   1.0000   1.0000   1.0000   1.0000   1.0000   1.0000   1.0000
     1.0000   1.0000   1.0000   1.0000   1.0000   1.0000   1.0000   1.0000
     1.0000   1.0000   1.0000   1.0000   1.0000   1.0000   1.0000   1.0000
     1.0000   1.0000   1.0000   1.0000   1.0000   1.0000   1.0000   1.0000
     1.0000   1.0000   1.0000   1.0000   1.0000   1.0000   1.0000   1.0000
     1.0000   1.0000   1.0000   1.0000   1.0000   1.0000   1.0000   1.0000
     1.0000   1.0000   1.0000   1.0000   1.0000   1.0000   1.0000   1.0000
     1.0000   1.0000   1.0000   1.0000   1.0000   1.0000   1.0000   1.0000
     1.0000   1.0000   1.0000   1.0000   1.0000   1.0000   1.0000   1.0000
     1.0000   1.0000   1.0000   1.0000   1.0000   1.0000   1.0000   1.0000
     1.0000   1.0000   1.0000   1.0000   1.0000   1.0000   1.0000   1.0000
     1.0000   1.0000   1.0000   1.0000   1.0000   1.0000   1.0000   1.0000
     1.0000   1.0000   1.0000   1.0000   1.0000   1.0000   1.0000   1.0000
     1.0000   1.0000   1.0000   1.0000   1.0000   1.0000   1.0000   1.0000
     1.0000   1.0000   1.0000   1.0000   1.0000   1.0000   1.0000   1.0000
     1.0000   1.0000   1.0000   1.0000   1.0000   1.0000   1.0000   1.0000
     1.0000   1.0000   1.0000   1.0000   1.0000   1.0000   1.0000   1.0000
     1.0000   1.0000   1.0000   1.0000   1.0000   1.0000   1.0000   1.0000
     1.0000   1.0000   1.0000   1.0000   1.0000   1.0000   1.0000   1.0000
     1.0000   1.0000   1.0000   1.0000   1.0000   1.0000   1.0000   1.0000
     1.0000   1.0000   1.0000   1.0000   1.0000   1.0000   1.0000   1.0000
     1.0000   1.0000   1.0000   1.0000   1.0000   1.0000   1.0000   1.0000
     1.0000   1.0000   1.0000   1.0000   1.0000   1.0000   1.0000   1.0000
     1.0000   1.0000   1.0000   1.0000   1.0000   1.0000   1.0000   1.0000
     1.0000   1.0000   1.0000   1.0000   1.0000   1.0000   1.0000   1.0000
     1.0000   1.0000   1.0000   1.0000   1.0000   1.0000   1.0000   1.0000
     1.0000   1.0000   1.0000   1.0000   1.0000   1.0000   1.0000   1.0000
     1.0000   1.0000   1.0000   1.0000   1.0000   1.0000   1.0000   1.0000
     1.0000   1.0000   1.0000   1.0000   1.0000   1.0000   1.0000   1.0000
     1.0000   1.0000   1.0000   1.0000   1.0000   1.0000   1.0000   1.0000
     1.0000   1.0000   1.0000   1.0000   1.0347   1.0347   0.8396   0.8396
     0.0573   0.0571  -0.0000  -0.0000  -0.0000  -0.0000  -0.0000  -0.0000
    -0.0000  -0.0000  -0.0000  -0.0000  -0.0000  -0.0000  -0.0000  -0.0000
    -0.0000  -0.0000  -0.0000  -0.0000  -0.0000  -0.0000  -0.0000  -0.0000
    -0.0000  -0.0000  -0.0000  -0.0000  -0.0000  -0.0000  -0.0000  -0.0000
    -0.0000  -0.0000  -0.0000  -0.0000  -0.0000  -0.0000  -0.0000  -0.0000
    -0.0000  -0.0000  -0.0000  -0.0000  -0.0000  -0.0000  -0.0000  -0.0000
    -0.0000  -0.0000

          k = 0.0000 0.0000-0.3279 ( 35390 PWs)   bands (ev):

  -100.5700-100.5700-100.5695-100.5695-100.1560-100.1560-100.1558-100.1558
  -100.0798-100.0798-100.0797-100.0797 -58.6123 -58.6123 -58.6123 -58.6123
   -58.6118 -58.6118 -58.6118 -58.6118 -58.2028 -58.2028 -58.2026 -58.2026
   -58.0519 -58.0519 -58.0519 -58.0519 -58.0518 -58.0518 -58.0518 -58.0518
   -58.0232 -58.0232 -58.0229 -58.0229 -57.9066 -57.9066 -57.9066 -57.9066
   -57.9064 -57.9064 -57.9063 -57.9063 -57.7447 -57.7447 -57.7446 -57.7446
   -29.9623 -29.9444 -29.9444 -29.9270 -15.3444 -15.3315 -15.1972 -15.1972
   -15.1876 -15.1876 -15.0842 -15.0756 -10.7771 -10.7771 -10.7602 -10.7068
   -10.7068 -10.4472 -10.4472 -10.1765 -10.0450 -10.0450 -10.0206 -10.0206
    -7.5847  -6.9045  -6.9045  -6.6893  -6.6893  -6.4976  -6.4976  -6.4254
    -6.4253  -6.4056  -6.3552  -6.3552  -6.2652  -6.2344  -6.1659  -5.9578
    -5.9441  -5.9441  -5.9254  -5.9254  -5.8909  -5.8272  -5.8272  -5.8083
    -1.0815  -1.0815  -1.0584  -1.0584  -0.6298  -0.6298  -0.6226  -0.6197
    -0.5687  -0.5280  -0.5280  -0.5043  -0.3394  -0.3394  -0.2455  -0.2455
    -0.1749  -0.1749  -0.1629  -0.1629   0.0797   0.0797   0.0969   0.0969
     3.1793   3.7626   4.2254   4.2257   4.6281   4.6281   4.8533   4.9175
     4.9660   5.5312   5.5564   5.5564   5.5825   5.6203   5.6408   5.6408
     5.7020   5.7021   5.7110   5.7110   5.7169   5.9319   5.9319   6.0434
     6.0434   6.2460   6.2460   6.2730   6.2731   6.4700   6.4700   6.5607
     6.5607   6.6444   6.6444   6.8588   6.8667   6.8690   6.8691   6.9074
     6.9074   6.9564   7.0235   7.0235   7.0833   7.0833   7.1677   7.2109
     7.3250   7.3250   7.4809   7.4809   7.5123   7.5123   7.5131   7.5131
     7.6426   7.6426   7.6711   7.6711   7.7365   7.7365   7.7397   7.8160
     7.8160   7.9654   7.9654   8.2189   8.2682   8.2754   8.2754   8.3430
     8.3430   8.3962   8.3962   8.4145   8.6138   8.6138   8.6590   8.6714
     8.6714   8.7024   8.7617   8.8100   8.8825   8.8825   8.9312   8.9313
     8.9773   8.9909   8.9911   8.9950   9.0063   9.0063   9.0425   9.0465
     9.0465   9.0632   9.0632   9.0665   9.1552   9.1739   9.2104   9.2104
     9.3658   9.3658   9.3777   9.4984   9.5433   9.5434   9.6310   9.6310
     9.7033   9.7033   9.7639   9.8540   9.8544   9.9200   9.9200  10.0747
    10.0747  10.1360  10.2056  10.2056  10.6402  10.6402  10.7304  10.7304
    10.8468  10.8469  12.5783  12.5783  13.0987  13.1720  13.4689  13.6338
    13.6338  13.7746  13.8182  13.8847  14.0115  15.0877  15.1046  15.1046
    15.2077  15.2077  15.2736  15.6253  15.6564  15.7970  15.7970  16.0001
    16.0699  16.3435  16.3435  16.4445  16.4445  16.4794  16.4794  16.4899
    16.4899  16.5228  16.5228  16.5239  16.6873  16.6873  17.1420  17.1420
    17.1723  17.2071  17.2071  17.4191  17.4191  17.7141  17.9123  18.0938
    18.0939  18.2614

     occupation numbers 
     1.0000   1.0000   1.0000   1.0000   1.0000   1.0000   1.0000   1.0000
     1.0000   1.0000   1.0000   1.0000   1.0000   1.0000   1.0000   1.0000
     1.0000   1.0000   1.0000   1.0000   1.0000   1.0000   1.0000   1.0000
     1.0000   1.0000   1.0000   1.0000   1.0000   1.0000   1.0000   1.0000
     1.0000   1.0000   1.0000   1.0000   1.0000   1.0000   1.0000   1.0000
     1.0000   1.0000   1.0000   1.0000   1.0000   1.0000   1.0000   1.0000
     1.0000   1.0000   1.0000   1.0000   1.0000   1.0000   1.0000   1.0000
     1.0000   1.0000   1.0000   1.0000   1.0000   1.0000   1.0000   1.0000
     1.0000   1.0000   1.0000   1.0000   1.0000   1.0000   1.0000   1.0000
     1.0000   1.0000   1.0000   1.0000   1.0000   1.0000   1.0000   1.0000
     1.0000   1.0000   1.0000   1.0000   1.0000   1.0000   1.0000   1.0000
     1.0000   1.0000   1.0000   1.0000   1.0000   1.0000   1.0000   1.0000
     1.0000   1.0000   1.0000   1.0000   1.0000   1.0000   1.0000   1.0000
     1.0000   1.0000   1.0000   1.0000   1.0000   1.0000   1.0000   1.0000
     1.0000   1.0000   1.0000   1.0000   1.0000   1.0000   1.0000   1.0000
     1.0000   1.0000   1.0000   1.0000   1.0000   1.0000   1.0000   1.0000
     1.0000   1.0000   1.0000   1.0000   1.0000   1.0000   1.0000   1.0000
     1.0000   1.0000   1.0000   1.0000   1.0000   1.0000   1.0000   1.0000
     1.0000   1.0000   1.0000   1.0000   1.0000   1.0000   1.0000   1.0000
     1.0000   1.0000   1.0000   1.0000   1.0000   1.0000   1.0000   1.0000
     1.0000   1.0000   1.0000   1.0000   1.0000   1.0000   1.0000   1.0000
     1.0000   1.0000   1.0000   1.0000   1.0000   1.0000   1.0000   1.0000
     1.0000   1.0000   1.0000   1.0000   1.0000   1.0000   1.0000   1.0000
     1.0000   1.0000   1.0000   1.0000   1.0000   1.0000   1.0000   1.0000
     1.0000   1.0000   1.0000   1.0000   1.0000   1.0000   1.0000   1.0000
     1.0000   1.0000   1.0000   1.0000   1.0000   1.0000   1.0000   1.0000
     1.0000   1.0000   1.0000   1.0000   1.0000   1.0000   1.0000   1.0000
     1.0000   1.0000   1.0000   1.0000   1.0000   1.0000   1.0000   1.0000
     1.0000   1.0000   1.0000   1.0000   1.0000   1.0000   1.0000   1.0000
     1.0000   1.0000   1.0000   1.0000   1.0000   1.0000   1.0000   1.0000
     1.0000   1.0000   1.0000   1.0000   1.0335   1.0335   0.8452   0.8452
     0.1902   0.1899  -0.0000  -0.0000  -0.0000  -0.0000  -0.0000  -0.0000
    -0.0000  -0.0000  -0.0000  -0.0000  -0.0000  -0.0000  -0.0000  -0.0000
    -0.0000  -0.0000  -0.0000  -0.0000  -0.0000  -0.0000  -0.0000  -0.0000
    -0.0000  -0.0000  -0.0000  -0.0000  -0.0000  -0.0000  -0.0000  -0.0000
    -0.0000  -0.0000  -0.0000  -0.0000  -0.0000  -0.0000  -0.0000  -0.0000
    -0.0000  -0.0000  -0.0000  -0.0000  -0.0000  -0.0000  -0.0000  -0.0000
    -0.0000  -0.0000

     the Fermi energy is    10.7925 ev

!    total energy              =   -6554.63928756 Ry
     estimated scf accuracy    <          9.3E-09 Ry
     smearing contrib. (-TS)   =      -0.00217457 Ry
     internal energy E=F+TS    =   -6554.63711298 Ry

     The total energy is F=E-TS. E is the sum of the following terms:
     one-electron contribution =   -5520.87151305 Ry
     hartree contribution      =    3038.79166797 Ry
     xc contribution           =    -965.50935525 Ry
     ewald contribution        =   -3107.44375877 Ry
     Hubbard energy            =       0.39584612 Ry

     total magnetization       =    -0.00 Bohr mag/cell
     absolute magnetization    =     3.59 Bohr mag/cell

     convergence has been achieved in  39 iterations

     Writing all to output data dir ./YBCO6/YBCO6.save/
 
     init_run     :     20.46s CPU     21.50s WALL (       1 calls)
     electrons    :   1478.14s CPU   1551.42s WALL (       1 calls)

     Called by init_run:
     wfcinit      :     15.95s CPU     16.29s WALL (       1 calls)
     wfcinit:atom :      0.06s CPU      0.09s WALL (       4 calls)
     wfcinit:wfcr :     10.43s CPU     10.59s WALL (       4 calls)
     potinit      :      0.10s CPU      0.13s WALL (       1 calls)
     hinit0       :      0.90s CPU      0.95s WALL (       1 calls)

     Called by electrons:
     c_bands      :    909.18s CPU    924.19s WALL (      39 calls)
     sum_band     :    426.07s CPU    459.43s WALL (      39 calls)
     v_of_rho     :      2.23s CPU      2.32s WALL (      40 calls)
     v_h          :      0.69s CPU      0.73s WALL (      40 calls)
     v_xc         :      1.54s CPU      1.58s WALL (      40 calls)
     newd         :    139.19s CPU    164.36s WALL (      40 calls)
     mix_rho      :      3.32s CPU      3.51s WALL (      39 calls)

     Called by c_bands:
     init_us_2    :      8.60s CPU      8.66s WALL (     320 calls)
     init_us_2:cp :      8.59s CPU      8.66s WALL (     320 calls)
     cegterg      :    864.84s CPU    879.53s WALL (     156 calls)

     Called by sum_band:
     sum_band:wei :      0.03s CPU      0.03s WALL (      39 calls)
     sum_band:loo :    123.69s CPU    125.07s WALL (      39 calls)
     sum_band:buf :      1.41s CPU      1.41s WALL (     156 calls)
     sum_band:ini :      4.19s CPU      4.20s WALL (     156 calls)
     sum_band:cal :     49.75s CPU     49.97s WALL (     156 calls)
     sum_band:bec :      0.19s CPU      0.19s WALL (     156 calls)
     addusdens    :    294.94s CPU    325.54s WALL (      39 calls)
                                        0.00s GPU  (      39 calls)
     addusd:skk   :      1.31s CPU      1.76s WALL (     234 calls)
                                        0.00s GPU  (     234 calls)

     Called by *egterg:
     cdiaghg      :     37.39s CPU     38.95s WALL (     516 calls)
     cegterg:over :     82.80s CPU     83.55s WALL (     360 calls)
     cegterg:upda :     46.54s CPU     48.07s WALL (     360 calls)
     cegterg:last :    104.48s CPU    104.79s WALL (     256 calls)
     cdiaghg:chol :      0.80s CPU      0.86s WALL (     516 calls)
     cdiaghg:inve :      0.42s CPU      0.48s WALL (     516 calls)
     cdiaghg:para :      7.79s CPU      8.60s WALL (    1032 calls)
     h_psi        :    451.89s CPU    458.87s WALL (     520 calls)
     s_psi        :    112.19s CPU    112.39s WALL (     524 calls)
     g_psi        :      1.44s CPU      1.45s WALL (     360 calls)

     Called by h_psi:
     h_psi:calbec :    108.59s CPU    109.16s WALL (     520 calls)
     vloc_psi     :    194.97s CPU    198.75s WALL (     520 calls)
     add_vuspsi   :    112.37s CPU    112.39s WALL (     520 calls)
     vhpsi        :     33.15s CPU     33.68s WALL (     520 calls)

     General routines
     calbec       :    169.88s CPU    171.22s WALL (    1356 calls)
     fft          :      3.57s CPU      3.89s WALL (     434 calls)
     ffts         :      0.22s CPU      0.24s WALL (     158 calls)
     fftw         :    133.36s CPU    136.00s WALL (  240638 calls)
     interpolate  :      0.92s CPU      0.98s WALL (      80 calls)
     davcio       :      0.01s CPU      0.01s WALL (       4 calls)
 
     Parallel routines

     Hubbard U routines
     new_ns       :      4.36s CPU      4.38s WALL (      39 calls)
     vhpsi        :     33.15s CPU     33.68s WALL (     520 calls)
 
     PWSCF        :  24m58.98s CPU  26m13.62s WALL

 
   This run was terminated on:  21:33: 0   1Jan2024            

=------------------------------------------------------------------------------=
   JOB DONE.
=------------------------------------------------------------------------------=
