
     Program PWSCF v.7.2 starts on  1Jan2024 at 19:16:18 

     This program is part of the open-source Quantum ESPRESSO suite
     for quantum simulation of materials; please cite
         "P. Giannozzi et al., J. Phys.:Condens. Matter 21 395502 (2009);
         "P. Giannozzi et al., J. Phys.:Condens. Matter 29 465901 (2017);
         "P. Giannozzi et al., J. Chem. Phys. 152 154105 (2020);
          URL http://www.quantum-espresso.org", 
     in publications or presentations arising from this work. More details at
     http://www.quantum-espresso.org/quote

     Parallel version (MPI), running on     4 processors

     MPI processes distributed on     1 nodes
     7598 MiB available memory on the printing compute node when the environment starts
 
     Waiting for input...
     Reading input from standard input
Warning: card &CELL ignored
Warning: card / ignored

     Current dimensions of program PWSCF are:
     Max number of different atomic species (ntypx) = 10
     Max number of k-points (npk) =  40000
     Max angular momentum in pseudopotentials (lmaxx) =  4
     Found identity + ( -0.5000 -0.5000  0.0000) symmetry
     This is a supercell, fractional translations are disabled
 
     R & G space division:  proc/nbgrp/npool/nimage =       4
     Subspace diagonalization in iterative solution of the eigenvalue problem:
     one sub-group per band group will be used
     custom distributed-memory algorithm (size of sub-group:  2*  2 procs)

 
     Parallelization info
     --------------------
     sticks:   dense  smooth     PW     G-vecs:    dense   smooth      PW
     Min        2210     984    252               238514    70654    9320
     Max        2211     985    253               238519    70656    9324
     Sum        8841    3937   1009               954065   282619   37287
 
     Using Slab Decomposition
 


     bravais-lattice index     =            6
     lattice parameter (alat)  =      14.3459  a.u.
     unit-cell volume          =    4502.1906 (a.u.)^3
     number of atoms/cell      =           48
     number of atomic types    =            6
     number of electrons       =       496.00
     number of Kohn-Sham states=          298
     kinetic-energy cutoff     =      60.0000  Ry
     charge density cutoff     =     540.0000  Ry
     scf convergence threshold =      1.0E-08
     mixing beta               =       0.1000
     number of iterations used =            8  plain     mixing
     Exchange-correlation= SLA  PZ   NOGX NOGC
                           (   1   1   0   0   0   0   0)
     Hubbard projectors: ortho-atomic
     Hubbard parameters of DFT+U (Dudarev formulation) in eV:
     U(Cu1-3d) =  2.5000
     U(Cu2-3d) =  2.5000

     Internal variables: lda_plus_u = T, lda_plus_u_kind = 0

     celldm(1)=  14.345919  celldm(2)=   0.000000  celldm(3)=   1.524891
     celldm(4)=   0.000000  celldm(5)=   0.000000  celldm(6)=   0.000000

     crystal axes: (cart. coord. in units of alat)
               a(1) = (   1.000000   0.000000   0.000000 )  
               a(2) = (   0.000000   1.000000   0.000000 )  
               a(3) = (   0.000000   0.000000   1.524891 )  

     reciprocal axes: (cart. coord. in units 2 pi/alat)
               b(1) = (  1.000000  0.000000  0.000000 )  
               b(2) = (  0.000000  1.000000  0.000000 )  
               b(3) = (  0.000000  0.000000  0.655785 )  


     PseudoPot. # 1 for Y  read from file:
     ~/q-e/pseudo/gbrv_lda/y_lda_v1.4.uspp.F.UPF
     MD5 check sum: Not computed, couldn't open file
     Pseudo is Ultrasoft + core correction, Zval = 11.0
     Generated by new atomic code, or converted to UPF format
     Using radial grid of  885 points,  6 beta functions with: 
                l(1) =   0
                l(2) =   0
                l(3) =   1
                l(4) =   1
                l(5) =   2
                l(6) =   2
     Q(r) pseudized with  8 coefficients,  rinner =    1.200   1.200   1.200
                                                       1.200   1.200

     PseudoPot. # 2 for Ba read from file:
     ~/q-e/pseudo/gbrv_lda/ba_lda_v1.uspp.F.UPF
     MD5 check sum: Not computed, couldn't open file
     Pseudo is Ultrasoft + core correction, Zval = 10.0
     Generated by new atomic code, or converted to UPF format
     Using radial grid of  907 points,  7 beta functions with: 
                l(1) =   0
                l(2) =   0
                l(3) =   1
                l(4) =   1
                l(5) =   2
                l(6) =   2
                l(7) =   3
     Q(r) pseudized with  6 coefficients,  rinner =    1.700   1.700   1.700
                                                       1.700   1.700   1.700
                                                       1.700

     PseudoPot. # 3 for Cu read from file:
     ~/q-e/pseudo/gbrv_lda/cu_lda_v1.2.uspp.F.UPF
     MD5 check sum: Not computed, couldn't open file
     Pseudo is Ultrasoft + core correction, Zval = 19.0
     Generated by new atomic code, or converted to UPF format
     Using radial grid of  867 points,  6 beta functions with: 
                l(1) =   0
                l(2) =   0
                l(3) =   1
                l(4) =   1
                l(5) =   2
                l(6) =   2
     Q(r) pseudized with  8 coefficients,  rinner =    1.150   1.150   1.150
                                                       1.150   1.150

     PseudoPot. # 4 for Cu read from file:
     ~/q-e/pseudo/gbrv_lda/cu_lda_v1.2.uspp.F.UPF
     MD5 check sum: Not computed, couldn't open file
     Pseudo is Ultrasoft + core correction, Zval = 19.0
     Generated by new atomic code, or converted to UPF format
     Using radial grid of  867 points,  6 beta functions with: 
                l(1) =   0
                l(2) =   0
                l(3) =   1
                l(4) =   1
                l(5) =   2
                l(6) =   2
     Q(r) pseudized with  8 coefficients,  rinner =    1.150   1.150   1.150
                                                       1.150   1.150

     PseudoPot. # 5 for Cu read from file:
     ~/q-e/pseudo/gbrv_lda/cu_lda_v1.2.uspp.F.UPF
     MD5 check sum: Not computed, couldn't open file
     Pseudo is Ultrasoft + core correction, Zval = 19.0
     Generated by new atomic code, or converted to UPF format
     Using radial grid of  867 points,  6 beta functions with: 
                l(1) =   0
                l(2) =   0
                l(3) =   1
                l(4) =   1
                l(5) =   2
                l(6) =   2
     Q(r) pseudized with  8 coefficients,  rinner =    1.150   1.150   1.150
                                                       1.150   1.150

     PseudoPot. # 6 for O  read from file:
     ~/q-e/pseudo/gbrv_lda/o_lda_v1.2.uspp.F.UPF
     MD5 check sum: Not computed, couldn't open file
     Pseudo is Ultrasoft + core correction, Zval =  6.0
     Generated by new atomic code, or converted to UPF format
     Using radial grid of  737 points,  5 beta functions with: 
                l(1) =   0
                l(2) =   0
                l(3) =   1
                l(4) =   1
                l(5) =   2
     Q(r) pseudized with  8 coefficients,  rinner =    0.900   0.900   0.900
                                                       0.900   0.900

     atomic species   valence    mass     pseudopotential
     Y                11.00    88.90584     Y ( 1.00)
     Ba               10.00   137.32700     Ba( 1.00)
     Cu               19.00    63.54600     Cu( 1.00)
     Cu1              19.00    63.54600     Cu( 1.00)
     Cu2              19.00    63.54600     Cu( 1.00)
     O                 6.00    15.99900     O ( 1.00)

     Starting magnetic structure 
     atomic species   magnetization
     Y               0.000
     Ba              0.000
     Cu              0.000
     Cu1             0.100
     Cu2            -0.100
     O               0.000

     16 Sym. Ops., with inversion, found


                                    s                        frac. trans.

      isym =  1     identity                                     

 cryst.   s( 1) = (     1          0          0      )
                  (     0          1          0      )
                  (     0          0          1      )

 cart.    s( 1) = (  1.0000000  0.0000000  0.0000000 )
                  (  0.0000000  1.0000000  0.0000000 )
                  (  0.0000000  0.0000000  1.0000000 )


      isym =  2     180 deg rotation - cart. axis [0,0,1]        

 cryst.   s( 2) = (    -1          0          0      )
                  (     0         -1          0      )
                  (     0          0          1      )

 cart.    s( 2) = ( -1.0000000  0.0000000  0.0000000 )
                  (  0.0000000 -1.0000000  0.0000000 )
                  (  0.0000000  0.0000000  1.0000000 )


      isym =  3     180 deg rotation - cart. axis [0,1,0]        

 cryst.   s( 3) = (    -1          0          0      )
                  (     0          1          0      )
                  (     0          0         -1      )

 cart.    s( 3) = ( -1.0000000  0.0000000  0.0000000 )
                  (  0.0000000  1.0000000  0.0000000 )
                  (  0.0000000  0.0000000 -1.0000000 )


      isym =  4     180 deg rotation - cart. axis [1,0,0]        

 cryst.   s( 4) = (     1          0          0      )
                  (     0         -1          0      )
                  (     0          0         -1      )

 cart.    s( 4) = (  1.0000000  0.0000000  0.0000000 )
                  (  0.0000000 -1.0000000  0.0000000 )
                  (  0.0000000  0.0000000 -1.0000000 )


      isym =  5     180 deg rotation - cart. axis [1,1,0]        

 cryst.   s( 5) = (     0          1          0      )
                  (     1          0          0      )
                  (     0          0         -1      )

 cart.    s( 5) = (  0.0000000  1.0000000  0.0000000 )
                  (  1.0000000  0.0000000  0.0000000 )
                  (  0.0000000  0.0000000 -1.0000000 )


      isym =  6     180 deg rotation - cart. axis [1,-1,0]       

 cryst.   s( 6) = (     0         -1          0      )
                  (    -1          0          0      )
                  (     0          0         -1      )

 cart.    s( 6) = (  0.0000000 -1.0000000  0.0000000 )
                  ( -1.0000000  0.0000000  0.0000000 )
                  (  0.0000000  0.0000000 -1.0000000 )


      isym =  7      90 deg rotation - cart. axis [0,0,-1]       

 cryst.   s( 7) = (     0         -1          0      )
                  (     1          0          0      )
                  (     0          0          1      )

 cart.    s( 7) = (  0.0000000  1.0000000  0.0000000 )
                  ( -1.0000000  0.0000000  0.0000000 )
                  (  0.0000000  0.0000000  1.0000000 )


      isym =  8      90 deg rotation - cart. axis [0,0,1]        

 cryst.   s( 8) = (     0          1          0      )
                  (    -1          0          0      )
                  (     0          0          1      )

 cart.    s( 8) = (  0.0000000 -1.0000000  0.0000000 )
                  (  1.0000000  0.0000000  0.0000000 )
                  (  0.0000000  0.0000000  1.0000000 )


      isym =  9     inversion                                    

 cryst.   s( 9) = (    -1          0          0      )
                  (     0         -1          0      )
                  (     0          0         -1      )

 cart.    s( 9) = ( -1.0000000  0.0000000  0.0000000 )
                  (  0.0000000 -1.0000000  0.0000000 )
                  (  0.0000000  0.0000000 -1.0000000 )


      isym = 10     inv. 180 deg rotation - cart. axis [0,0,1]   

 cryst.   s(10) = (     1          0          0      )
                  (     0          1          0      )
                  (     0          0         -1      )

 cart.    s(10) = (  1.0000000  0.0000000  0.0000000 )
                  (  0.0000000  1.0000000  0.0000000 )
                  (  0.0000000  0.0000000 -1.0000000 )


      isym = 11     inv. 180 deg rotation - cart. axis [0,1,0]   

 cryst.   s(11) = (     1          0          0      )
                  (     0         -1          0      )
                  (     0          0          1      )

 cart.    s(11) = (  1.0000000  0.0000000  0.0000000 )
                  (  0.0000000 -1.0000000  0.0000000 )
                  (  0.0000000  0.0000000  1.0000000 )


      isym = 12     inv. 180 deg rotation - cart. axis [1,0,0]   

 cryst.   s(12) = (    -1          0          0      )
                  (     0          1          0      )
                  (     0          0          1      )

 cart.    s(12) = ( -1.0000000  0.0000000  0.0000000 )
                  (  0.0000000  1.0000000  0.0000000 )
                  (  0.0000000  0.0000000  1.0000000 )


      isym = 13     inv. 180 deg rotation - cart. axis [1,1,0]   

 cryst.   s(13) = (     0         -1          0      )
                  (    -1          0          0      )
                  (     0          0          1      )

 cart.    s(13) = (  0.0000000 -1.0000000  0.0000000 )
                  ( -1.0000000  0.0000000  0.0000000 )
                  (  0.0000000  0.0000000  1.0000000 )


      isym = 14     inv. 180 deg rotation - cart. axis [1,-1,0]  

 cryst.   s(14) = (     0          1          0      )
                  (     1          0          0      )
                  (     0          0          1      )

 cart.    s(14) = (  0.0000000  1.0000000  0.0000000 )
                  (  1.0000000  0.0000000  0.0000000 )
                  (  0.0000000  0.0000000  1.0000000 )


      isym = 15     inv.  90 deg rotation - cart. axis [0,0,-1]  

 cryst.   s(15) = (     0          1          0      )
                  (    -1          0          0      )
                  (     0          0         -1      )

 cart.    s(15) = (  0.0000000 -1.0000000  0.0000000 )
                  (  1.0000000  0.0000000  0.0000000 )
                  (  0.0000000  0.0000000 -1.0000000 )


      isym = 16     inv.  90 deg rotation - cart. axis [0,0,1]   

 cryst.   s(16) = (     0         -1          0      )
                  (     1          0          0      )
                  (     0          0         -1      )

 cart.    s(16) = (  0.0000000  1.0000000  0.0000000 )
                  ( -1.0000000  0.0000000  0.0000000 )
                  (  0.0000000  0.0000000 -1.0000000 )


     point group D_4h(4/mmm)
     there are 10 classes
     the character table:

       E     2C4   C2    2C2'  2C2'' i     2S4   s_h   2s_v  2s_d 
A_1g   1.00  1.00  1.00  1.00  1.00  1.00  1.00  1.00  1.00  1.00
A_2g   1.00  1.00  1.00 -1.00 -1.00  1.00  1.00  1.00 -1.00 -1.00
B_1g   1.00 -1.00  1.00  1.00 -1.00  1.00 -1.00  1.00  1.00 -1.00
B_2g   1.00 -1.00  1.00 -1.00  1.00  1.00 -1.00  1.00 -1.00  1.00
E_g    2.00  0.00 -2.00  0.00  0.00  2.00  0.00 -2.00  0.00  0.00
A_1u   1.00  1.00  1.00  1.00  1.00 -1.00 -1.00 -1.00 -1.00 -1.00
A_2u   1.00  1.00  1.00 -1.00 -1.00 -1.00 -1.00 -1.00  1.00  1.00
B_1u   1.00 -1.00  1.00  1.00 -1.00 -1.00  1.00 -1.00 -1.00  1.00
B_2u   1.00 -1.00  1.00 -1.00  1.00 -1.00  1.00 -1.00  1.00 -1.00
E_u    2.00  0.00 -2.00  0.00  0.00 -2.00  0.00  2.00  0.00  0.00

     the symmetry operations in each class and the name of the first element:

     E        1
          identity                                               
     2C4      7    8
           90 deg rotation - cart. axis [0,0,-1]                 
     C2       2
          180 deg rotation - cart. axis [0,0,1]                  
     2C2'     3    4
          180 deg rotation - cart. axis [0,1,0]                  
     2C2''    5    6
          180 deg rotation - cart. axis [1,1,0]                  
     i        9
          inversion                                              
     2S4     15   16
          inv.  90 deg rotation - cart. axis [0,0,-1]            
     s_h     10
          inv. 180 deg rotation - cart. axis [0,0,1]             
     2s_v    11   12
          inv. 180 deg rotation - cart. axis [0,1,0]             
     2s_d    13   14
          inv. 180 deg rotation - cart. axis [1,1,0]             

   Cartesian axes

     site n.     atom                  positions (alat units)
         1        Y      tau(   1) = (   0.2500000   0.2500000   0.7624455  )
         2        Y      tau(   2) = (   0.2500000   0.7500000   0.7624455  )
         3        Y      tau(   3) = (   0.7499999   0.2500000   0.7624455  )
         4        Y      tau(   4) = (   0.7500000   0.7500000   0.7624455  )
         5        Ba     tau(   5) = (   0.2500000   0.2500000   0.2966571  )
         6        Ba     tau(   6) = (   0.2500000   0.2500000   1.2282339  )
         7        Ba     tau(   7) = (   0.2500000   0.7500000   0.2966571  )
         8        Ba     tau(   8) = (   0.2500000   0.7500000   1.2282339  )
         9        Ba     tau(   9) = (   0.7500000   0.2500000   0.2966571  )
        10        Ba     tau(  10) = (   0.7500000   0.2500000   1.2282339  )
        11        Ba     tau(  11) = (   0.7500000   0.7500000   0.2966571  )
        12        Ba     tau(  12) = (   0.7500000   0.7500000   1.2282339  )
        13        Cu     tau(  13) = (   0.0000000   0.0000000   0.0000000  )
        14        Cu1    tau(  14) = (   0.0000000   0.0000000   0.5526369  )
        15        Cu1    tau(  15) = (   0.0000000   0.0000000   0.9722541  )
        16        Cu     tau(  16) = (   0.0000000   0.5000000   0.0000000  )
        17        Cu2    tau(  17) = (   0.0000000   0.5000000   0.5526369  )
        18        Cu2    tau(  18) = (   0.0000000   0.5000000   0.9722541  )
        19        Cu     tau(  19) = (   0.5000000   0.0000000   0.0000000  )
        20        Cu2    tau(  20) = (   0.5000000   0.0000000   0.5526369  )
        21        Cu2    tau(  21) = (   0.5000000   0.0000000   0.9722541  )
        22        Cu     tau(  22) = (   0.5000000   0.5000000   0.0000000  )
        23        Cu1    tau(  23) = (   0.5000000   0.5000000   0.5526369  )
        24        Cu1    tau(  24) = (   0.5000000   0.5000000   0.9722541  )
        25        O      tau(  25) = (   0.0000000   0.0000000   0.2314064  )
        26        O      tau(  26) = (   0.0000000   0.0000000   1.2934846  )
        27        O      tau(  27) = (   0.5000000   0.0000000   0.2314064  )
        28        O      tau(  28) = (   0.5000000   0.0000000   1.2934846  )
        29        O      tau(  29) = (   0.0000000   0.5000000   0.2314064  )
        30        O      tau(  30) = (   0.0000000   0.5000000   1.2934846  )
        31        O      tau(  31) = (   0.5000000   0.5000000   0.2314064  )
        32        O      tau(  32) = (   0.5000000   0.5000000   1.2934846  )
        33        O      tau(  33) = (   0.2500000   0.0000000   0.5769788  )
        34        O      tau(  34) = (   0.2500000   0.0000000   0.9479122  )
        35        O      tau(  35) = (   0.2500000   0.5000000   0.5769788  )
        36        O      tau(  36) = (   0.2500000   0.5000000   0.9479122  )
        37        O      tau(  37) = (   0.7500000   0.0000000   0.5769788  )
        38        O      tau(  38) = (   0.7500000   0.0000000   0.9479122  )
        39        O      tau(  39) = (   0.7500000   0.5000000   0.5769788  )
        40        O      tau(  40) = (   0.7500000   0.5000000   0.9479122  )
        41        O      tau(  41) = (   0.0000000   0.2500000   0.5769788  )
        42        O      tau(  42) = (   0.0000000   0.2500000   0.9479122  )
        43        O      tau(  43) = (   0.5000000   0.2500000   0.5769788  )
        44        O      tau(  44) = (   0.5000000   0.2500000   0.9479122  )
        45        O      tau(  45) = (   0.0000000   0.7500000   0.5769788  )
        46        O      tau(  46) = (   0.0000000   0.7500000   0.9479122  )
        47        O      tau(  47) = (   0.5000000   0.7500000   0.5769788  )
        48        O      tau(  48) = (   0.5000000   0.7500000   0.9479122  )

   Crystallographic axes

     site n.     atom                  positions (cryst. coord.)
         1        Y      tau(   1) = (  0.2500000  0.2500000  0.5000000  )
         2        Y      tau(   2) = (  0.2500000  0.7500000  0.5000000  )
         3        Y      tau(   3) = (  0.7499999  0.2500000  0.5000000  )
         4        Y      tau(   4) = (  0.7500000  0.7500000  0.5000000  )
         5        Ba     tau(   5) = (  0.2500000  0.2500000  0.1945431  )
         6        Ba     tau(   6) = (  0.2500000  0.2500000  0.8054569  )
         7        Ba     tau(   7) = (  0.2500000  0.7500000  0.1945431  )
         8        Ba     tau(   8) = (  0.2500000  0.7500000  0.8054569  )
         9        Ba     tau(   9) = (  0.7500000  0.2500000  0.1945431  )
        10        Ba     tau(  10) = (  0.7500000  0.2500000  0.8054569  )
        11        Ba     tau(  11) = (  0.7500000  0.7500000  0.1945431  )
        12        Ba     tau(  12) = (  0.7500000  0.7500000  0.8054569  )
        13        Cu     tau(  13) = (  0.0000000  0.0000000  0.0000000  )
        14        Cu1    tau(  14) = (  0.0000000  0.0000000  0.3624108  )
        15        Cu1    tau(  15) = (  0.0000000  0.0000000  0.6375892  )
        16        Cu     tau(  16) = (  0.0000000  0.5000000  0.0000000  )
        17        Cu2    tau(  17) = (  0.0000000  0.5000000  0.3624108  )
        18        Cu2    tau(  18) = (  0.0000000  0.5000000  0.6375892  )
        19        Cu     tau(  19) = (  0.5000000  0.0000000  0.0000000  )
        20        Cu2    tau(  20) = (  0.5000000  0.0000000  0.3624108  )
        21        Cu2    tau(  21) = (  0.5000000  0.0000000  0.6375892  )
        22        Cu     tau(  22) = (  0.5000000  0.5000000  0.0000000  )
        23        Cu1    tau(  23) = (  0.5000000  0.5000000  0.3624108  )
        24        Cu1    tau(  24) = (  0.5000000  0.5000000  0.6375892  )
        25        O      tau(  25) = (  0.0000000  0.0000000  0.1517528  )
        26        O      tau(  26) = (  0.0000000  0.0000000  0.8482472  )
        27        O      tau(  27) = (  0.5000000  0.0000000  0.1517528  )
        28        O      tau(  28) = (  0.5000000  0.0000000  0.8482472  )
        29        O      tau(  29) = (  0.0000000  0.5000000  0.1517528  )
        30        O      tau(  30) = (  0.0000000  0.5000000  0.8482472  )
        31        O      tau(  31) = (  0.5000000  0.5000000  0.1517528  )
        32        O      tau(  32) = (  0.5000000  0.5000000  0.8482472  )
        33        O      tau(  33) = (  0.2500000  0.0000000  0.3783738  )
        34        O      tau(  34) = (  0.2500000  0.0000000  0.6216262  )
        35        O      tau(  35) = (  0.2500000  0.5000000  0.3783738  )
        36        O      tau(  36) = (  0.2500000  0.5000000  0.6216262  )
        37        O      tau(  37) = (  0.7500000  0.0000000  0.3783738  )
        38        O      tau(  38) = (  0.7500000  0.0000000  0.6216262  )
        39        O      tau(  39) = (  0.7500000  0.5000000  0.3783738  )
        40        O      tau(  40) = (  0.7500000  0.5000000  0.6216262  )
        41        O      tau(  41) = (  0.0000000  0.2500000  0.3783738  )
        42        O      tau(  42) = (  0.0000000  0.2500000  0.6216262  )
        43        O      tau(  43) = (  0.5000000  0.2500000  0.3783738  )
        44        O      tau(  44) = (  0.5000000  0.2500000  0.6216262  )
        45        O      tau(  45) = (  0.0000000  0.7500000  0.3783738  )
        46        O      tau(  46) = (  0.0000000  0.7500000  0.6216262  )
        47        O      tau(  47) = (  0.5000000  0.7500000  0.3783738  )
        48        O      tau(  48) = (  0.5000000  0.7500000  0.6216262  )

     number of k points=     2  Methfessel-Paxton smearing, width (Ry)=  0.0100
                       cart. coord. in units 2pi/alat
        k(    1) = (   0.0000000   0.0000000   0.0000000), wk =   0.5000000
        k(    2) = (   0.0000000   0.0000000  -0.3278923), wk =   0.5000000

                       cryst. coord.
        k(    1) = (   0.0000000   0.0000000   0.0000000), wk =   0.5000000
        k(    2) = (   0.0000000   0.0000000  -0.5000000), wk =   0.5000000

     Dense  grid:   954065 G-vectors     FFT dimensions: ( 108, 108, 162)

     Smooth grid:   282619 G-vectors     FFT dimensions: (  72,  72, 108)

     Dynamical RAM for                 wfc:      40.16 MB

     Dynamical RAM for     wfc (w. buffer):     200.82 MB

     Dynamical RAM for             U proj.:       5.39 MB

     Dynamical RAM for  U proj. (w. buff.):      26.96 MB

     Dynamical RAM for           str. fact:      21.84 MB

     Dynamical RAM for           local pot:       0.00 MB

     Dynamical RAM for          nlocal pot:     107.82 MB

     Dynamical RAM for                qrad:      20.88 MB

     Dynamical RAM for          rho,v,vnew:      43.73 MB

     Dynamical RAM for               rhoin:      14.58 MB

     Dynamical RAM for            rho*nmix:     116.46 MB

     Dynamical RAM for           G-vectors:      14.19 MB

     Dynamical RAM for          h,s,v(r/c):       4.07 MB

     Dynamical RAM for          <psi|beta>:       3.64 MB

     Dynamical RAM for                 psi:      80.33 MB

     Dynamical RAM for                hpsi:      80.33 MB

     Dynamical RAM for                spsi:      80.33 MB

     Dynamical RAM for      wfcinit/wfcrot:     113.79 MB

     Dynamical RAM for           addusdens:    1372.08 MB

     Estimated static dynamical RAM per process >     498.18 MB

     Estimated max dynamical RAM per process >       1.94 GB

     Estimated total dynamical RAM >       7.76 GB

     Check: negative core charge=   -0.000002
     Generating pointlists ...
     new r_m :   0.1284 (alat units)  1.8421 (a.u.) for type    1
     new r_m :   0.1483 (alat units)  2.1276 (a.u.) for type    2
     new r_m :   0.0955 (alat units)  1.3694 (a.u.) for type    3
     new r_m :   0.1036 (alat units)  1.4864 (a.u.) for type    4
     new r_m :   0.1036 (alat units)  1.4864 (a.u.) for type    5
     new r_m :   0.0955 (alat units)  1.3694 (a.u.) for type    6

     Initial potential from superposition of free atoms

     starting charge     483.8832, renormalised to     496.0000

     negative rho (up, down):  4.013E-01 4.013E-01

     HUBBARD ENERGY =    0.8820  (Ry)

     STARTING HUBBARD OCCUPATIONS:

     =================== HUBBARD OCCUPATIONS ===================
     ------------------------ ATOM   14 ------------------------
     Tr[ns( 14)] (up, down, total) =   5.00000  3.00000  8.00000
     Atomic magnetic moment for atom  14 =   2.00000
     SPIN  1
     eigenvalues:
       1.000  1.000  1.000  1.000  1.000
     eigenvectors (columns):
       1.000  0.000  0.000  0.000  0.000
       0.000  1.000  0.000  0.000  0.000
       0.000  0.000  1.000  0.000  0.000
       0.000  0.000  0.000  1.000  0.000
       0.000  0.000  0.000  0.000  1.000
     occupation matrix ns (before diag.):
       1.000  0.000  0.000  0.000  0.000
       0.000  1.000  0.000  0.000  0.000
       0.000  0.000  1.000  0.000  0.000
       0.000  0.000  0.000  1.000  0.000
       0.000  0.000  0.000  0.000  1.000
     SPIN  2
     eigenvalues:
       0.600  0.600  0.600  0.600  0.600
     eigenvectors (columns):
       1.000  0.000  0.000  0.000  0.000
       0.000  1.000  0.000  0.000  0.000
       0.000  0.000  1.000  0.000  0.000
       0.000  0.000  0.000  1.000  0.000
       0.000  0.000  0.000  0.000  1.000
     occupation matrix ns (before diag.):
       0.600  0.000  0.000  0.000  0.000
       0.000  0.600  0.000  0.000  0.000
       0.000  0.000  0.600  0.000  0.000
       0.000  0.000  0.000  0.600  0.000
       0.000  0.000  0.000  0.000  0.600
     ------------------------ ATOM   15 ------------------------
     Tr[ns( 15)] (up, down, total) =   5.00000  3.00000  8.00000
     Atomic magnetic moment for atom  15 =   2.00000
     SPIN  1
     eigenvalues:
       1.000  1.000  1.000  1.000  1.000
     eigenvectors (columns):
       1.000  0.000  0.000  0.000  0.000
       0.000  1.000  0.000  0.000  0.000
       0.000  0.000  1.000  0.000  0.000
       0.000  0.000  0.000  1.000  0.000
       0.000  0.000  0.000  0.000  1.000
     occupation matrix ns (before diag.):
       1.000  0.000  0.000  0.000  0.000
       0.000  1.000  0.000  0.000  0.000
       0.000  0.000  1.000  0.000  0.000
       0.000  0.000  0.000  1.000  0.000
       0.000  0.000  0.000  0.000  1.000
     SPIN  2
     eigenvalues:
       0.600  0.600  0.600  0.600  0.600
     eigenvectors (columns):
       1.000  0.000  0.000  0.000  0.000
       0.000  1.000  0.000  0.000  0.000
       0.000  0.000  1.000  0.000  0.000
       0.000  0.000  0.000  1.000  0.000
       0.000  0.000  0.000  0.000  1.000
     occupation matrix ns (before diag.):
       0.600  0.000  0.000  0.000  0.000
       0.000  0.600  0.000  0.000  0.000
       0.000  0.000  0.600  0.000  0.000
       0.000  0.000  0.000  0.600  0.000
       0.000  0.000  0.000  0.000  0.600
     ------------------------ ATOM   17 ------------------------
     Tr[ns( 17)] (up, down, total) =   3.00000  5.00000  8.00000
     Atomic magnetic moment for atom  17 =  -2.00000
     SPIN  1
     eigenvalues:
       0.600  0.600  0.600  0.600  0.600
     eigenvectors (columns):
       1.000  0.000  0.000  0.000  0.000
       0.000  1.000  0.000  0.000  0.000
       0.000  0.000  1.000  0.000  0.000
       0.000  0.000  0.000  1.000  0.000
       0.000  0.000  0.000  0.000  1.000
     occupation matrix ns (before diag.):
       0.600  0.000  0.000  0.000  0.000
       0.000  0.600  0.000  0.000  0.000
       0.000  0.000  0.600  0.000  0.000
       0.000  0.000  0.000  0.600  0.000
       0.000  0.000  0.000  0.000  0.600
     SPIN  2
     eigenvalues:
       1.000  1.000  1.000  1.000  1.000
     eigenvectors (columns):
       1.000  0.000  0.000  0.000  0.000
       0.000  1.000  0.000  0.000  0.000
       0.000  0.000  1.000  0.000  0.000
       0.000  0.000  0.000  1.000  0.000
       0.000  0.000  0.000  0.000  1.000
     occupation matrix ns (before diag.):
       1.000  0.000  0.000  0.000  0.000
       0.000  1.000  0.000  0.000  0.000
       0.000  0.000  1.000  0.000  0.000
       0.000  0.000  0.000  1.000  0.000
       0.000  0.000  0.000  0.000  1.000
     ------------------------ ATOM   18 ------------------------
     Tr[ns( 18)] (up, down, total) =   3.00000  5.00000  8.00000
     Atomic magnetic moment for atom  18 =  -2.00000
     SPIN  1
     eigenvalues:
       0.600  0.600  0.600  0.600  0.600
     eigenvectors (columns):
       1.000  0.000  0.000  0.000  0.000
       0.000  1.000  0.000  0.000  0.000
       0.000  0.000  1.000  0.000  0.000
       0.000  0.000  0.000  1.000  0.000
       0.000  0.000  0.000  0.000  1.000
     occupation matrix ns (before diag.):
       0.600  0.000  0.000  0.000  0.000
       0.000  0.600  0.000  0.000  0.000
       0.000  0.000  0.600  0.000  0.000
       0.000  0.000  0.000  0.600  0.000
       0.000  0.000  0.000  0.000  0.600
     SPIN  2
     eigenvalues:
       1.000  1.000  1.000  1.000  1.000
     eigenvectors (columns):
       1.000  0.000  0.000  0.000  0.000
       0.000  1.000  0.000  0.000  0.000
       0.000  0.000  1.000  0.000  0.000
       0.000  0.000  0.000  1.000  0.000
       0.000  0.000  0.000  0.000  1.000
     occupation matrix ns (before diag.):
       1.000  0.000  0.000  0.000  0.000
       0.000  1.000  0.000  0.000  0.000
       0.000  0.000  1.000  0.000  0.000
       0.000  0.000  0.000  1.000  0.000
       0.000  0.000  0.000  0.000  1.000
     ------------------------ ATOM   20 ------------------------
     Tr[ns( 20)] (up, down, total) =   3.00000  5.00000  8.00000
     Atomic magnetic moment for atom  20 =  -2.00000
     SPIN  1
     eigenvalues:
       0.600  0.600  0.600  0.600  0.600
     eigenvectors (columns):
       1.000  0.000  0.000  0.000  0.000
       0.000  1.000  0.000  0.000  0.000
       0.000  0.000  1.000  0.000  0.000
       0.000  0.000  0.000  1.000  0.000
       0.000  0.000  0.000  0.000  1.000
     occupation matrix ns (before diag.):
       0.600  0.000  0.000  0.000  0.000
       0.000  0.600  0.000  0.000  0.000
       0.000  0.000  0.600  0.000  0.000
       0.000  0.000  0.000  0.600  0.000
       0.000  0.000  0.000  0.000  0.600
     SPIN  2
     eigenvalues:
       1.000  1.000  1.000  1.000  1.000
     eigenvectors (columns):
       1.000  0.000  0.000  0.000  0.000
       0.000  1.000  0.000  0.000  0.000
       0.000  0.000  1.000  0.000  0.000
       0.000  0.000  0.000  1.000  0.000
       0.000  0.000  0.000  0.000  1.000
     occupation matrix ns (before diag.):
       1.000  0.000  0.000  0.000  0.000
       0.000  1.000  0.000  0.000  0.000
       0.000  0.000  1.000  0.000  0.000
       0.000  0.000  0.000  1.000  0.000
       0.000  0.000  0.000  0.000  1.000
     ------------------------ ATOM   21 ------------------------
     Tr[ns( 21)] (up, down, total) =   3.00000  5.00000  8.00000
     Atomic magnetic moment for atom  21 =  -2.00000
     SPIN  1
     eigenvalues:
       0.600  0.600  0.600  0.600  0.600
     eigenvectors (columns):
       1.000  0.000  0.000  0.000  0.000
       0.000  1.000  0.000  0.000  0.000
       0.000  0.000  1.000  0.000  0.000
       0.000  0.000  0.000  1.000  0.000
       0.000  0.000  0.000  0.000  1.000
     occupation matrix ns (before diag.):
       0.600  0.000  0.000  0.000  0.000
       0.000  0.600  0.000  0.000  0.000
       0.000  0.000  0.600  0.000  0.000
       0.000  0.000  0.000  0.600  0.000
       0.000  0.000  0.000  0.000  0.600
     SPIN  2
     eigenvalues:
       1.000  1.000  1.000  1.000  1.000
     eigenvectors (columns):
       1.000  0.000  0.000  0.000  0.000
       0.000  1.000  0.000  0.000  0.000
       0.000  0.000  1.000  0.000  0.000
       0.000  0.000  0.000  1.000  0.000
       0.000  0.000  0.000  0.000  1.000
     occupation matrix ns (before diag.):
       1.000  0.000  0.000  0.000  0.000
       0.000  1.000  0.000  0.000  0.000
       0.000  0.000  1.000  0.000  0.000
       0.000  0.000  0.000  1.000  0.000
       0.000  0.000  0.000  0.000  1.000
     ------------------------ ATOM   23 ------------------------
     Tr[ns( 23)] (up, down, total) =   5.00000  3.00000  8.00000
     Atomic magnetic moment for atom  23 =   2.00000
     SPIN  1
     eigenvalues:
       1.000  1.000  1.000  1.000  1.000
     eigenvectors (columns):
       1.000  0.000  0.000  0.000  0.000
       0.000  1.000  0.000  0.000  0.000
       0.000  0.000  1.000  0.000  0.000
       0.000  0.000  0.000  1.000  0.000
       0.000  0.000  0.000  0.000  1.000
     occupation matrix ns (before diag.):
       1.000  0.000  0.000  0.000  0.000
       0.000  1.000  0.000  0.000  0.000
       0.000  0.000  1.000  0.000  0.000
       0.000  0.000  0.000  1.000  0.000
       0.000  0.000  0.000  0.000  1.000
     SPIN  2
     eigenvalues:
       0.600  0.600  0.600  0.600  0.600
     eigenvectors (columns):
       1.000  0.000  0.000  0.000  0.000
       0.000  1.000  0.000  0.000  0.000
       0.000  0.000  1.000  0.000  0.000
       0.000  0.000  0.000  1.000  0.000
       0.000  0.000  0.000  0.000  1.000
     occupation matrix ns (before diag.):
       0.600  0.000  0.000  0.000  0.000
       0.000  0.600  0.000  0.000  0.000
       0.000  0.000  0.600  0.000  0.000
       0.000  0.000  0.000  0.600  0.000
       0.000  0.000  0.000  0.000  0.600
     ------------------------ ATOM   24 ------------------------
     Tr[ns( 24)] (up, down, total) =   5.00000  3.00000  8.00000
     Atomic magnetic moment for atom  24 =   2.00000
     SPIN  1
     eigenvalues:
       1.000  1.000  1.000  1.000  1.000
     eigenvectors (columns):
       1.000  0.000  0.000  0.000  0.000
       0.000  1.000  0.000  0.000  0.000
       0.000  0.000  1.000  0.000  0.000
       0.000  0.000  0.000  1.000  0.000
       0.000  0.000  0.000  0.000  1.000
     occupation matrix ns (before diag.):
       1.000  0.000  0.000  0.000  0.000
       0.000  1.000  0.000  0.000  0.000
       0.000  0.000  1.000  0.000  0.000
       0.000  0.000  0.000  1.000  0.000
       0.000  0.000  0.000  0.000  1.000
     SPIN  2
     eigenvalues:
       0.600  0.600  0.600  0.600  0.600
     eigenvectors (columns):
       1.000  0.000  0.000  0.000  0.000
       0.000  1.000  0.000  0.000  0.000
       0.000  0.000  1.000  0.000  0.000
       0.000  0.000  0.000  1.000  0.000
       0.000  0.000  0.000  0.000  1.000
     occupation matrix ns (before diag.):
       0.600  0.000  0.000  0.000  0.000
       0.000  0.600  0.000  0.000  0.000
       0.000  0.000  0.600  0.000  0.000
       0.000  0.000  0.000  0.600  0.000
       0.000  0.000  0.000  0.000  0.600

     Number of occupied Hubbard levels =   64.0000

     Atomic wfc used for Hubbard projectors are orthogonalized

     Starting wfcs are  408 randomized atomic wfcs

     total cpu time spent up to now is       20.9 secs

     Self-consistent Calculation

     iteration #  1     ecut=    60.00 Ry     beta= 0.10
     Davidson diagonalization with overlap

---- Real-time Memory Report at c_bands before calling an iterative solver
          1547 MiB given to the printing process from OS
             0 MiB allocation reported by mallinfo(arena+hblkhd)
          5392 MiB available memory on the node where the printing process lives
------------------
     ethr =  1.00E-02,  avg # of iterations =  2.0

     =================== HUBBARD OCCUPATIONS ===================
     ------------------------ ATOM   14 ------------------------
     Tr[ns( 14)] (up, down, total) =   4.85086  4.14567  8.99654
     Atomic magnetic moment for atom  14 =   0.70519
     SPIN  1
     eigenvalues:
       0.940  0.954  0.984  0.984  0.989
     eigenvectors (columns):
      -0.000  1.000 -0.000 -0.000  0.000
      -0.000  0.000  0.349  0.937  0.000
      -0.000  0.000  0.937 -0.349  0.000
       1.000  0.000  0.000  0.000 -0.000
       0.000 -0.000 -0.000 -0.000  1.000
     occupation matrix ns (before diag.):
       0.954 -0.000 -0.000  0.000  0.000
      -0.000  0.984 -0.000  0.000  0.000
      -0.000 -0.000  0.984  0.000  0.000
       0.000  0.000  0.000  0.940 -0.000
       0.000  0.000  0.000 -0.000  0.989
     SPIN  2
     eigenvalues:
       0.334  0.895  0.969  0.969  0.979
     eigenvectors (columns):
      -0.000  1.000 -0.000 -0.000  0.000
      -0.000  0.000  0.311  0.951  0.000
      -0.000  0.000  0.951 -0.311  0.000
       1.000  0.000  0.000  0.000 -0.000
       0.000 -0.000 -0.000 -0.000  1.000
     occupation matrix ns (before diag.):
       0.895 -0.000 -0.000 -0.000  0.000
      -0.000  0.969 -0.000  0.000  0.000
      -0.000 -0.000  0.969  0.000  0.000
      -0.000  0.000  0.000  0.334 -0.000
       0.000  0.000  0.000 -0.000  0.979
     ------------------------ ATOM   15 ------------------------
     Tr[ns( 15)] (up, down, total) =   4.85086  4.14567  8.99654
     Atomic magnetic moment for atom  15 =   0.70519
     SPIN  1
     eigenvalues:
       0.940  0.954  0.984  0.984  0.989
     eigenvectors (columns):
      -0.000  1.000 -0.000 -0.000  0.000
      -0.000  0.000  0.351  0.936  0.000
      -0.000  0.000  0.936 -0.351  0.000
       1.000  0.000  0.000  0.000 -0.000
       0.000 -0.000 -0.000 -0.000  1.000
     occupation matrix ns (before diag.):
       0.954 -0.000 -0.000  0.000  0.000
      -0.000  0.984 -0.000  0.000  0.000
      -0.000 -0.000  0.984  0.000  0.000
       0.000  0.000  0.000  0.940 -0.000
       0.000  0.000  0.000 -0.000  0.989
     SPIN  2
     eigenvalues:
       0.334  0.895  0.969  0.969  0.979
     eigenvectors (columns):
       0.000  1.000 -0.000 -0.000  0.000
      -0.000  0.000  0.343  0.939  0.000
      -0.000  0.000  0.939 -0.343  0.000
       1.000 -0.000  0.000  0.000 -0.000
       0.000 -0.000 -0.000 -0.000  1.000
     occupation matrix ns (before diag.):
       0.895 -0.000 -0.000 -0.000  0.000
      -0.000  0.969 -0.000  0.000  0.000
      -0.000 -0.000  0.969  0.000  0.000
      -0.000  0.000  0.000  0.334 -0.000
       0.000  0.000  0.000 -0.000  0.979
     ------------------------ ATOM   17 ------------------------
     Tr[ns( 17)] (up, down, total) =   4.14565  4.85074  8.99639
     Atomic magnetic moment for atom  17 =  -0.70509
     SPIN  1
     eigenvalues:
       0.334  0.895  0.969  0.969  0.979
     eigenvectors (columns):
       0.000  1.000 -0.000 -0.000  0.000
      -0.000  0.000  1.000 -0.000  0.000
      -0.000  0.000  0.000  1.000  0.000
       1.000 -0.000  0.000  0.000 -0.000
       0.000 -0.000 -0.000 -0.000  1.000
     occupation matrix ns (before diag.):
       0.895 -0.000 -0.000 -0.000  0.000
      -0.000  0.969 -0.000  0.000  0.000
      -0.000 -0.000  0.969  0.000  0.000
      -0.000  0.000  0.000  0.334 -0.000
       0.000  0.000  0.000 -0.000  0.979
     SPIN  2
     eigenvalues:
       0.940  0.954  0.984  0.984  0.989
     eigenvectors (columns):
       0.001  1.000 -0.000 -0.000  0.000
      -0.000  0.000  1.000 -0.000  0.000
      -0.000  0.000  0.000  1.000  0.000
       1.000 -0.001  0.000  0.000 -0.000
       0.000 -0.000 -0.000 -0.000  1.000
     occupation matrix ns (before diag.):
       0.954 -0.000 -0.000 -0.000  0.000
      -0.000  0.984 -0.000  0.000  0.000
      -0.000 -0.000  0.984  0.000  0.000
      -0.000  0.000  0.000  0.940 -0.000
       0.000  0.000  0.000 -0.000  0.989
     ------------------------ ATOM   18 ------------------------
     Tr[ns( 18)] (up, down, total) =   4.14565  4.85074  8.99639
     Atomic magnetic moment for atom  18 =  -0.70509
     SPIN  1
     eigenvalues:
       0.334  0.895  0.969  0.969  0.979
     eigenvectors (columns):
       0.000  1.000 -0.000 -0.000  0.000
      -0.000  0.000  1.000 -0.000  0.000
      -0.000  0.000  0.000  1.000  0.000
       1.000 -0.000  0.000  0.000 -0.000
       0.000 -0.000 -0.000 -0.000  1.000
     occupation matrix ns (before diag.):
       0.895 -0.000 -0.000 -0.000  0.000
      -0.000  0.969 -0.000  0.000  0.000
      -0.000 -0.000  0.969  0.000  0.000
      -0.000  0.000  0.000  0.334 -0.000
       0.000  0.000  0.000 -0.000  0.979
     SPIN  2
     eigenvalues:
       0.940  0.954  0.984  0.984  0.989
     eigenvectors (columns):
       0.001  1.000 -0.000 -0.000  0.000
      -0.000  0.000  1.000 -0.000  0.000
      -0.000  0.000  0.000  1.000  0.000
       1.000 -0.001  0.000  0.000 -0.000
       0.000 -0.000 -0.000 -0.000  1.000
     occupation matrix ns (before diag.):
       0.954 -0.000 -0.000 -0.000  0.000
      -0.000  0.984 -0.000  0.000  0.000
      -0.000 -0.000  0.984  0.000  0.000
      -0.000  0.000  0.000  0.940 -0.000
       0.000  0.000  0.000 -0.000  0.989
     ------------------------ ATOM   20 ------------------------
     Tr[ns( 20)] (up, down, total) =   4.14565  4.85074  8.99639
     Atomic magnetic moment for atom  20 =  -0.70509
     SPIN  1
     eigenvalues:
       0.334  0.895  0.969  0.969  0.979
     eigenvectors (columns):
      -0.000  1.000 -0.000 -0.000  0.000
      -0.000  0.000  0.000  1.000  0.000
      -0.000  0.000  1.000 -0.000  0.000
       1.000  0.000  0.000  0.000 -0.000
       0.000 -0.000 -0.000 -0.000  1.000
     occupation matrix ns (before diag.):
       0.895 -0.000 -0.000  0.000  0.000
      -0.000  0.969 -0.000  0.000  0.000
      -0.000 -0.000  0.969  0.000  0.000
       0.000  0.000  0.000  0.334 -0.000
       0.000  0.000  0.000 -0.000  0.979
     SPIN  2
     eigenvalues:
       0.940  0.954  0.984  0.984  0.989
     eigenvectors (columns):
      -0.001  1.000 -0.000 -0.000  0.000
      -0.000  0.000  0.000  1.000  0.000
      -0.000  0.000  1.000 -0.000  0.000
       1.000  0.001  0.000  0.000 -0.000
       0.000 -0.000 -0.000 -0.000  1.000
     occupation matrix ns (before diag.):
       0.954 -0.000 -0.000  0.000  0.000
      -0.000  0.984 -0.000  0.000  0.000
      -0.000 -0.000  0.984  0.000  0.000
       0.000  0.000  0.000  0.940 -0.000
       0.000  0.000  0.000 -0.000  0.989
     ------------------------ ATOM   21 ------------------------
     Tr[ns( 21)] (up, down, total) =   4.14565  4.85074  8.99639
     Atomic magnetic moment for atom  21 =  -0.70509
     SPIN  1
     eigenvalues:
       0.334  0.895  0.969  0.969  0.979
     eigenvectors (columns):
      -0.000  1.000 -0.000 -0.000  0.000
      -0.000  0.000  0.000  1.000  0.000
      -0.000  0.000  1.000 -0.000  0.000
       1.000  0.000  0.000  0.000 -0.000
       0.000 -0.000 -0.000 -0.000  1.000
     occupation matrix ns (before diag.):
       0.895 -0.000 -0.000  0.000  0.000
      -0.000  0.969 -0.000  0.000  0.000
      -0.000 -0.000  0.969  0.000  0.000
       0.000  0.000  0.000  0.334 -0.000
       0.000  0.000  0.000 -0.000  0.979
     SPIN  2
     eigenvalues:
       0.940  0.954  0.984  0.984  0.989
     eigenvectors (columns):
      -0.001  1.000 -0.000 -0.000  0.000
      -0.000  0.000  0.000  1.000  0.000
      -0.000  0.000  1.000 -0.000  0.000
       1.000  0.001  0.000  0.000 -0.000
       0.000 -0.000 -0.000 -0.000  1.000
     occupation matrix ns (before diag.):
       0.954 -0.000 -0.000  0.000  0.000
      -0.000  0.984 -0.000  0.000  0.000
      -0.000 -0.000  0.984  0.000  0.000
       0.000  0.000  0.000  0.940 -0.000
       0.000  0.000  0.000 -0.000  0.989
     ------------------------ ATOM   23 ------------------------
     Tr[ns( 23)] (up, down, total) =   4.85082  4.14570  8.99653
     Atomic magnetic moment for atom  23 =   0.70512
     SPIN  1
     eigenvalues:
       0.940  0.954  0.984  0.984  0.989
     eigenvectors (columns):
      -0.000  1.000 -0.000 -0.000  0.000
      -0.000  0.000  0.336  0.942  0.000
      -0.000  0.000  0.942 -0.336  0.000
       1.000  0.000  0.000  0.000 -0.000
       0.000 -0.000 -0.000 -0.000  1.000
     occupation matrix ns (before diag.):
       0.954 -0.000 -0.000  0.000  0.000
      -0.000  0.984 -0.000  0.000  0.000
      -0.000 -0.000  0.984  0.000  0.000
       0.000  0.000  0.000  0.940 -0.000
       0.000  0.000  0.000 -0.000  0.989
     SPIN  2
     eigenvalues:
       0.334  0.895  0.969  0.969  0.979
     eigenvectors (columns):
       0.000  1.000 -0.000 -0.000  0.000
      -0.000  0.000  0.325  0.946  0.000
      -0.000  0.000  0.946 -0.325  0.000
       1.000  0.000  0.000  0.000 -0.000
       0.000 -0.000 -0.000 -0.000  1.000
     occupation matrix ns (before diag.):
       0.895 -0.000 -0.000 -0.000  0.000
      -0.000  0.969 -0.000  0.000  0.000
      -0.000 -0.000  0.969  0.000  0.000
      -0.000  0.000  0.000  0.334 -0.000
       0.000  0.000  0.000 -0.000  0.979
     ------------------------ ATOM   24 ------------------------
     Tr[ns( 24)] (up, down, total) =   4.85082  4.14570  8.99653
     Atomic magnetic moment for atom  24 =   0.70512
     SPIN  1
     eigenvalues:
       0.940  0.954  0.984  0.984  0.989
     eigenvectors (columns):
      -0.000  1.000 -0.000 -0.000  0.000
      -0.000  0.000  0.337  0.942  0.000
      -0.000  0.000  0.942 -0.337  0.000
       1.000  0.000  0.000  0.000 -0.000
       0.000 -0.000 -0.000 -0.000  1.000
     occupation matrix ns (before diag.):
       0.954 -0.000 -0.000  0.000  0.000
      -0.000  0.984 -0.000  0.000  0.000
      -0.000 -0.000  0.984  0.000  0.000
       0.000  0.000  0.000  0.940 -0.000
       0.000  0.000  0.000 -0.000  0.989
     SPIN  2
     eigenvalues:
       0.334  0.895  0.969  0.969  0.979
     eigenvectors (columns):
      -0.000  1.000 -0.000 -0.000  0.000
      -0.000  0.000  0.373  0.928  0.000
      -0.000  0.000  0.928 -0.373  0.000
       1.000  0.000  0.000  0.000 -0.000
       0.000 -0.000 -0.000 -0.000  1.000
     occupation matrix ns (before diag.):
       0.895 -0.000 -0.000 -0.000  0.000
      -0.000  0.969 -0.000  0.000  0.000
      -0.000 -0.000  0.969  0.000  0.000
      -0.000  0.000  0.000  0.334 -0.000
       0.000  0.000  0.000 -0.000  0.979

     Number of occupied Hubbard levels =   71.9717

     negative rho (up, down):  3.965E-01 3.965E-01

     HUBBARD ENERGY =    0.3974  (Ry)

     total cpu time spent up to now is       63.9 secs

     total energy              =   -6555.20338961 Ry
     estimated scf accuracy    <       7.55223322 Ry

     total magnetization       =     0.00 Bohr mag/cell
     absolute magnetization    =     7.34 Bohr mag/cell

     iteration #  2     ecut=    60.00 Ry     beta= 0.10
     Davidson diagonalization with overlap

---- Real-time Memory Report at c_bands before calling an iterative solver
          2016 MiB given to the printing process from OS
             0 MiB allocation reported by mallinfo(arena+hblkhd)
          5458 MiB available memory on the node where the printing process lives
------------------
     ethr =  1.52E-03,  avg # of iterations =  2.0

     =================== HUBBARD OCCUPATIONS ===================
     ------------------------ ATOM   14 ------------------------
     Tr[ns( 14)] (up, down, total) =   4.85897  4.19942  9.05839
     Atomic magnetic moment for atom  14 =   0.65955
     SPIN  1
     eigenvalues:
       0.947  0.958  0.983  0.983  0.987
     eigenvectors (columns):
      -0.000  1.000 -0.000 -0.000  0.000
      -0.000  0.000  0.335  0.942  0.000
      -0.000  0.000  0.942 -0.335  0.000
       1.000  0.000  0.000  0.000 -0.000
       0.000 -0.000 -0.000 -0.000  1.000
     occupation matrix ns (before diag.):
       0.958 -0.000 -0.000  0.000  0.000
      -0.000  0.983 -0.000  0.000  0.000
      -0.000 -0.000  0.983  0.000  0.000
       0.000  0.000  0.000  0.947 -0.000
       0.000  0.000  0.000 -0.000  0.987
     SPIN  2
     eigenvalues:
       0.346  0.930  0.972  0.972  0.979
     eigenvectors (columns):
      -0.000 -1.000 -0.000 -0.000  0.000
       0.000 -0.000  0.352  0.936  0.000
       0.000 -0.000  0.936 -0.352  0.000
      -1.000  0.000  0.000  0.000 -0.000
      -0.000  0.000 -0.000 -0.000  1.000
     occupation matrix ns (before diag.):
       0.930 -0.000 -0.000 -0.000  0.000
      -0.000  0.972 -0.000  0.000  0.000
      -0.000 -0.000  0.972  0.000  0.000
      -0.000  0.000  0.000  0.346 -0.000
       0.000  0.000  0.000 -0.000  0.979
     ------------------------ ATOM   15 ------------------------
     Tr[ns( 15)] (up, down, total) =   4.85897  4.19942  9.05839
     Atomic magnetic moment for atom  15 =   0.65955
     SPIN  1
     eigenvalues:
       0.947  0.958  0.983  0.983  0.987
     eigenvectors (columns):
      -0.000  1.000 -0.000 -0.000  0.000
      -0.000  0.000  0.330  0.944  0.000
      -0.000  0.000  0.944 -0.330  0.000
       1.000  0.000  0.000  0.000 -0.000
       0.000 -0.000 -0.000 -0.000  1.000
     occupation matrix ns (before diag.):
       0.958 -0.000 -0.000  0.000  0.000
      -0.000  0.983 -0.000  0.000  0.000
      -0.000 -0.000  0.983  0.000  0.000
       0.000  0.000  0.000  0.947 -0.000
       0.000  0.000  0.000 -0.000  0.987
     SPIN  2
     eigenvalues:
       0.346  0.930  0.972  0.972  0.979
     eigenvectors (columns):
      -0.000 -1.000 -0.000 -0.000  0.000
       0.000 -0.000  0.317  0.949  0.000
       0.000 -0.000  0.949 -0.317  0.000
      -1.000 -0.000  0.000  0.000 -0.000
      -0.000  0.000 -0.000 -0.000  1.000
     occupation matrix ns (before diag.):
       0.930 -0.000 -0.000 -0.000  0.000
      -0.000  0.972 -0.000  0.000  0.000
      -0.000 -0.000  0.972  0.000  0.000
      -0.000  0.000  0.000  0.346 -0.000
       0.000  0.000  0.000 -0.000  0.979
     ------------------------ ATOM   17 ------------------------
     Tr[ns( 17)] (up, down, total) =   4.19945  4.85899  9.05845
     Atomic magnetic moment for atom  17 =  -0.65954
     SPIN  1
     eigenvalues:
       0.346  0.930  0.972  0.972  0.979
     eigenvectors (columns):
      -0.000 -1.000 -0.000 -0.000  0.000
       0.000 -0.000  1.000 -0.000  0.000
       0.000 -0.000  0.000  1.000  0.000
      -1.000  0.000  0.000  0.000 -0.000
      -0.000  0.000 -0.000 -0.000  1.000
     occupation matrix ns (before diag.):
       0.930 -0.000 -0.000 -0.000  0.000
      -0.000  0.972 -0.000  0.000  0.000
      -0.000 -0.000  0.972  0.000  0.000
      -0.000  0.000  0.000  0.346 -0.000
       0.000  0.000  0.000 -0.000  0.979
     SPIN  2
     eigenvalues:
       0.947  0.959  0.983  0.983  0.987
     eigenvectors (columns):
       0.000  1.000 -0.000 -0.000  0.000
      -0.000  0.000  1.000 -0.000  0.000
      -0.000  0.000  0.000  1.000  0.000
       1.000 -0.000  0.000  0.000 -0.000
       0.000 -0.000 -0.000 -0.000  1.000
     occupation matrix ns (before diag.):
       0.959 -0.000 -0.000 -0.000  0.000
      -0.000  0.983 -0.000  0.000  0.000
      -0.000 -0.000  0.983  0.000  0.000
      -0.000  0.000  0.000  0.947 -0.000
       0.000  0.000  0.000 -0.000  0.987
     ------------------------ ATOM   18 ------------------------
     Tr[ns( 18)] (up, down, total) =   4.19945  4.85899  9.05845
     Atomic magnetic moment for atom  18 =  -0.65954
     SPIN  1
     eigenvalues:
       0.346  0.930  0.972  0.972  0.979
     eigenvectors (columns):
      -0.000 -1.000 -0.000 -0.000  0.000
       0.000 -0.000  1.000 -0.000  0.000
       0.000 -0.000  0.000  1.000  0.000
      -1.000  0.000  0.000  0.000 -0.000
      -0.000  0.000 -0.000 -0.000  1.000
     occupation matrix ns (before diag.):
       0.930 -0.000 -0.000 -0.000  0.000
      -0.000  0.972 -0.000  0.000  0.000
      -0.000 -0.000  0.972  0.000  0.000
      -0.000  0.000  0.000  0.346 -0.000
       0.000  0.000  0.000 -0.000  0.979
     SPIN  2
     eigenvalues:
       0.947  0.959  0.983  0.983  0.987
     eigenvectors (columns):
       0.000  1.000 -0.000 -0.000  0.000
      -0.000  0.000  1.000 -0.000  0.000
      -0.000  0.000  0.000  1.000  0.000
       1.000 -0.000  0.000  0.000 -0.000
       0.000 -0.000 -0.000 -0.000  1.000
     occupation matrix ns (before diag.):
       0.959 -0.000 -0.000 -0.000  0.000
      -0.000  0.983 -0.000  0.000  0.000
      -0.000 -0.000  0.983  0.000  0.000
      -0.000  0.000  0.000  0.947 -0.000
       0.000  0.000  0.000 -0.000  0.987
     ------------------------ ATOM   20 ------------------------
     Tr[ns( 20)] (up, down, total) =   4.19945  4.85899  9.05845
     Atomic magnetic moment for atom  20 =  -0.65954
     SPIN  1
     eigenvalues:
       0.346  0.930  0.972  0.972  0.979
     eigenvectors (columns):
       0.000 -1.000 -0.000 -0.000  0.000
       0.000 -0.000  0.000  1.000  0.000
       0.000 -0.000  1.000 -0.000  0.000
      -1.000 -0.000  0.000  0.000 -0.000
      -0.000  0.000 -0.000 -0.000  1.000
     occupation matrix ns (before diag.):
       0.930 -0.000 -0.000  0.000  0.000
      -0.000  0.972 -0.000  0.000  0.000
      -0.000 -0.000  0.972  0.000  0.000
       0.000  0.000  0.000  0.346 -0.000
       0.000  0.000  0.000 -0.000  0.979
     SPIN  2
     eigenvalues:
       0.947  0.959  0.983  0.983  0.987
     eigenvectors (columns):
      -0.000  1.000 -0.000 -0.000  0.000
      -0.000  0.000  0.000  1.000  0.000
      -0.000  0.000  1.000 -0.000  0.000
       1.000  0.000  0.000  0.000 -0.000
       0.000 -0.000 -0.000 -0.000  1.000
     occupation matrix ns (before diag.):
       0.959 -0.000 -0.000  0.000  0.000
      -0.000  0.983 -0.000  0.000  0.000
      -0.000 -0.000  0.983  0.000  0.000
       0.000  0.000  0.000  0.947 -0.000
       0.000  0.000  0.000 -0.000  0.987
     ------------------------ ATOM   21 ------------------------
     Tr[ns( 21)] (up, down, total) =   4.19945  4.85899  9.05845
     Atomic magnetic moment for atom  21 =  -0.65954
     SPIN  1
     eigenvalues:
       0.346  0.930  0.972  0.972  0.979
     eigenvectors (columns):
       0.000 -1.000 -0.000 -0.000  0.000
       0.000 -0.000  0.000  1.000  0.000
       0.000 -0.000  1.000 -0.000  0.000
      -1.000 -0.000  0.000  0.000 -0.000
      -0.000  0.000 -0.000 -0.000  1.000
     occupation matrix ns (before diag.):
       0.930 -0.000 -0.000  0.000  0.000
      -0.000  0.972 -0.000  0.000  0.000
      -0.000 -0.000  0.972  0.000  0.000
       0.000  0.000  0.000  0.346 -0.000
       0.000  0.000  0.000 -0.000  0.979
     SPIN  2
     eigenvalues:
       0.947  0.959  0.983  0.983  0.987
     eigenvectors (columns):
      -0.000  1.000 -0.000 -0.000  0.000
      -0.000  0.000  0.000  1.000  0.000
      -0.000  0.000  1.000 -0.000  0.000
       1.000  0.000  0.000  0.000 -0.000
       0.000 -0.000 -0.000 -0.000  1.000
     occupation matrix ns (before diag.):
       0.959 -0.000 -0.000  0.000  0.000
      -0.000  0.983 -0.000  0.000  0.000
      -0.000 -0.000  0.983  0.000  0.000
       0.000  0.000  0.000  0.947 -0.000
       0.000  0.000  0.000 -0.000  0.987
     ------------------------ ATOM   23 ------------------------
     Tr[ns( 23)] (up, down, total) =   4.85897  4.19942  9.05839
     Atomic magnetic moment for atom  23 =   0.65956
     SPIN  1
     eigenvalues:
       0.947  0.959  0.983  0.983  0.987
     eigenvectors (columns):
      -0.000  1.000 -0.000 -0.000  0.000
      -0.000  0.000  0.345  0.939  0.000
      -0.000  0.000  0.939 -0.345  0.000
       1.000  0.000  0.000  0.000 -0.000
       0.000 -0.000 -0.000 -0.000  1.000
     occupation matrix ns (before diag.):
       0.959 -0.000 -0.000  0.000  0.000
      -0.000  0.983 -0.000  0.000  0.000
      -0.000 -0.000  0.983  0.000  0.000
       0.000  0.000  0.000  0.947 -0.000
       0.000  0.000  0.000 -0.000  0.987
     SPIN  2
     eigenvalues:
       0.346  0.930  0.972  0.972  0.979
     eigenvectors (columns):
      -0.000 -1.000 -0.000 -0.000  0.000
       0.000 -0.000  0.272  0.962  0.000
       0.000 -0.000  0.962 -0.272  0.000
      -1.000  0.000  0.000  0.000 -0.000
      -0.000  0.000 -0.000 -0.000  1.000
     occupation matrix ns (before diag.):
       0.930 -0.000 -0.000 -0.000  0.000
      -0.000  0.972 -0.000  0.000  0.000
      -0.000 -0.000  0.972  0.000  0.000
      -0.000  0.000  0.000  0.346 -0.000
       0.000  0.000  0.000 -0.000  0.979
     ------------------------ ATOM   24 ------------------------
     Tr[ns( 24)] (up, down, total) =   4.85897  4.19942  9.05839
     Atomic magnetic moment for atom  24 =   0.65956
     SPIN  1
     eigenvalues:
       0.947  0.959  0.983  0.983  0.987
     eigenvectors (columns):
      -0.000  1.000 -0.000 -0.000  0.000
      -0.000  0.000  0.330  0.944  0.000
      -0.000  0.000  0.944 -0.330  0.000
       1.000  0.000  0.000  0.000 -0.000
       0.000 -0.000 -0.000 -0.000  1.000
     occupation matrix ns (before diag.):
       0.959 -0.000 -0.000  0.000  0.000
      -0.000  0.983 -0.000  0.000  0.000
      -0.000 -0.000  0.983  0.000  0.000
       0.000  0.000  0.000  0.947 -0.000
       0.000  0.000  0.000 -0.000  0.987
     SPIN  2
     eigenvalues:
       0.346  0.930  0.972  0.972  0.979
     eigenvectors (columns):
      -0.000 -1.000 -0.000 -0.000  0.000
       0.000 -0.000  0.344  0.939  0.000
       0.000 -0.000  0.939 -0.344  0.000
      -1.000  0.000  0.000  0.000 -0.000
      -0.000  0.000 -0.000 -0.000  1.000
     occupation matrix ns (before diag.):
       0.930 -0.000 -0.000 -0.000  0.000
      -0.000  0.972 -0.000  0.000  0.000
      -0.000 -0.000  0.972  0.000  0.000
      -0.000  0.000  0.000  0.346 -0.000
       0.000  0.000  0.000 -0.000  0.979

     Number of occupied Hubbard levels =   72.4674

     negative rho (up, down):  3.840E-01 3.840E-01

     HUBBARD ENERGY =    0.3898  (Ry)

     total cpu time spent up to now is      104.0 secs

     total energy              =   -6553.91938942 Ry
     estimated scf accuracy    <       4.49634214 Ry

     total magnetization       =    -0.00 Bohr mag/cell
     absolute magnetization    =     6.89 Bohr mag/cell

     iteration #  3     ecut=    60.00 Ry     beta= 0.10
     Davidson diagonalization with overlap

---- Real-time Memory Report at c_bands before calling an iterative solver
          2025 MiB given to the printing process from OS
             0 MiB allocation reported by mallinfo(arena+hblkhd)
          5583 MiB available memory on the node where the printing process lives
------------------
     ethr =  9.07E-04,  avg # of iterations =  2.0

     =================== HUBBARD OCCUPATIONS ===================
     ------------------------ ATOM   14 ------------------------
     Tr[ns( 14)] (up, down, total) =   4.89039  4.71870  9.60910
     Atomic magnetic moment for atom  14 =   0.17169
     SPIN  1
     eigenvalues:
       0.950  0.972  0.988  0.988  0.991
     eigenvectors (columns):
      -0.000  1.000 -0.000 -0.000  0.000
      -0.000  0.000  0.311  0.950  0.000
      -0.000  0.000  0.950 -0.311  0.000
       1.000  0.000  0.000  0.000 -0.000
       0.000 -0.000 -0.000 -0.000  1.000
     occupation matrix ns (before diag.):
       0.972 -0.000 -0.000  0.000  0.000
      -0.000  0.988 -0.000  0.000  0.000
      -0.000 -0.000  0.988  0.000  0.000
       0.000  0.000  0.000  0.950 -0.000
       0.000  0.000  0.000 -0.000  0.991
     SPIN  2
     eigenvalues:
       0.816  0.955  0.981  0.981  0.985
     eigenvectors (columns):
      -0.000  1.000 -0.000 -0.000  0.000
      -0.000  0.000  0.349  0.937  0.000
      -0.000  0.000  0.937 -0.349  0.000
       1.000  0.000  0.000  0.000 -0.000
       0.000 -0.000 -0.000 -0.000  1.000
     occupation matrix ns (before diag.):
       0.955 -0.000 -0.000  0.000  0.000
      -0.000  0.981 -0.000  0.000  0.000
      -0.000 -0.000  0.981  0.000  0.000
       0.000  0.000  0.000  0.816 -0.000
       0.000  0.000  0.000 -0.000  0.985
     ------------------------ ATOM   15 ------------------------
     Tr[ns( 15)] (up, down, total) =   4.89039  4.71870  9.60910
     Atomic magnetic moment for atom  15 =   0.17169
     SPIN  1
     eigenvalues:
       0.950  0.972  0.988  0.988  0.991
     eigenvectors (columns):
      -0.000  1.000 -0.000 -0.000  0.000
      -0.000  0.000  0.357  0.934  0.000
      -0.000  0.000  0.934 -0.357  0.000
       1.000  0.000  0.000  0.000 -0.000
       0.000 -0.000 -0.000 -0.000  1.000
     occupation matrix ns (before diag.):
       0.972 -0.000 -0.000  0.000  0.000
      -0.000  0.988 -0.000  0.000  0.000
      -0.000 -0.000  0.988  0.000  0.000
       0.000  0.000  0.000  0.950 -0.000
       0.000  0.000  0.000 -0.000  0.991
     SPIN  2
     eigenvalues:
       0.816  0.955  0.981  0.981  0.985
     eigenvectors (columns):
      -0.000  1.000 -0.000 -0.000  0.000
      -0.000  0.000  0.350  0.937  0.000
      -0.000  0.000  0.937 -0.350  0.000
       1.000  0.000  0.000  0.000 -0.000
       0.000 -0.000 -0.000 -0.000  1.000
     occupation matrix ns (before diag.):
       0.955 -0.000 -0.000  0.000  0.000
      -0.000  0.981 -0.000  0.000  0.000
      -0.000 -0.000  0.981  0.000  0.000
       0.000  0.000  0.000  0.816 -0.000
       0.000  0.000  0.000 -0.000  0.985
     ------------------------ ATOM   17 ------------------------
     Tr[ns( 17)] (up, down, total) =   4.71867  4.89038  9.60905
     Atomic magnetic moment for atom  17 =  -0.17171
     SPIN  1
     eigenvalues:
       0.816  0.955  0.981  0.981  0.985
     eigenvectors (columns):
      -0.000  1.000 -0.000 -0.000  0.000
      -0.000  0.000  0.000  1.000  0.000
      -0.000  0.000  1.000 -0.000  0.000
       1.000  0.000  0.000  0.000 -0.000
       0.000 -0.000 -0.000 -0.000  1.000
     occupation matrix ns (before diag.):
       0.955 -0.000 -0.000  0.000  0.000
      -0.000  0.981 -0.000  0.000  0.000
      -0.000 -0.000  0.981  0.000  0.000
       0.000  0.000  0.000  0.816 -0.000
       0.000  0.000  0.000 -0.000  0.985
     SPIN  2
     eigenvalues:
       0.950  0.972  0.988  0.988  0.991
     eigenvectors (columns):
       0.000  1.000 -0.000 -0.000  0.000
      -0.000  0.000  1.000 -0.000  0.000
      -0.000  0.000  0.000  1.000  0.000
       1.000 -0.000  0.000  0.000 -0.000
       0.000 -0.000 -0.000 -0.000  1.000
     occupation matrix ns (before diag.):
       0.972 -0.000 -0.000 -0.000  0.000
      -0.000  0.988 -0.000  0.000  0.000
      -0.000 -0.000  0.988  0.000  0.000
      -0.000  0.000  0.000  0.950 -0.000
       0.000  0.000  0.000 -0.000  0.991
     ------------------------ ATOM   18 ------------------------
     Tr[ns( 18)] (up, down, total) =   4.71867  4.89038  9.60905
     Atomic magnetic moment for atom  18 =  -0.17171
     SPIN  1
     eigenvalues:
       0.816  0.955  0.981  0.981  0.985
     eigenvectors (columns):
      -0.000  1.000 -0.000 -0.000  0.000
      -0.000  0.000  0.000  1.000  0.000
      -0.000  0.000  1.000 -0.000  0.000
       1.000  0.000  0.000  0.000 -0.000
       0.000 -0.000 -0.000 -0.000  1.000
     occupation matrix ns (before diag.):
       0.955 -0.000 -0.000  0.000  0.000
      -0.000  0.981 -0.000  0.000  0.000
      -0.000 -0.000  0.981  0.000  0.000
       0.000  0.000  0.000  0.816 -0.000
       0.000  0.000  0.000 -0.000  0.985
     SPIN  2
     eigenvalues:
       0.950  0.972  0.988  0.988  0.991
     eigenvectors (columns):
       0.000  1.000 -0.000 -0.000  0.000
      -0.000  0.000  1.000 -0.000  0.000
      -0.000  0.000  0.000  1.000  0.000
       1.000 -0.000  0.000  0.000 -0.000
       0.000 -0.000 -0.000 -0.000  1.000
     occupation matrix ns (before diag.):
       0.972 -0.000 -0.000 -0.000  0.000
      -0.000  0.988 -0.000  0.000  0.000
      -0.000 -0.000  0.988  0.000  0.000
      -0.000  0.000  0.000  0.950 -0.000
       0.000  0.000  0.000 -0.000  0.991
     ------------------------ ATOM   20 ------------------------
     Tr[ns( 20)] (up, down, total) =   4.71867  4.89038  9.60905
     Atomic magnetic moment for atom  20 =  -0.17171
     SPIN  1
     eigenvalues:
       0.816  0.955  0.981  0.981  0.985
     eigenvectors (columns):
       0.000  1.000 -0.000 -0.000  0.000
      -0.000  0.000  1.000 -0.000  0.000
      -0.000  0.000  0.000  1.000  0.000
       1.000 -0.000  0.000  0.000 -0.000
       0.000 -0.000 -0.000 -0.000  1.000
     occupation matrix ns (before diag.):
       0.955 -0.000 -0.000 -0.000  0.000
      -0.000  0.981 -0.000  0.000  0.000
      -0.000 -0.000  0.981  0.000  0.000
      -0.000  0.000  0.000  0.816 -0.000
       0.000  0.000  0.000 -0.000  0.985
     SPIN  2
     eigenvalues:
       0.950  0.972  0.988  0.988  0.991
     eigenvectors (columns):
      -0.000  1.000 -0.000 -0.000  0.000
      -0.000  0.000  0.000  1.000  0.000
      -0.000  0.000  1.000 -0.000  0.000
       1.000  0.000  0.000  0.000 -0.000
       0.000 -0.000 -0.000 -0.000  1.000
     occupation matrix ns (before diag.):
       0.972 -0.000 -0.000  0.000  0.000
      -0.000  0.988 -0.000  0.000  0.000
      -0.000 -0.000  0.988  0.000  0.000
       0.000  0.000  0.000  0.950 -0.000
       0.000  0.000  0.000 -0.000  0.991
     ------------------------ ATOM   21 ------------------------
     Tr[ns( 21)] (up, down, total) =   4.71867  4.89038  9.60905
     Atomic magnetic moment for atom  21 =  -0.17171
     SPIN  1
     eigenvalues:
       0.816  0.955  0.981  0.981  0.985
     eigenvectors (columns):
       0.000  1.000 -0.000 -0.000  0.000
      -0.000  0.000  1.000 -0.000  0.000
      -0.000  0.000  0.000  1.000  0.000
       1.000 -0.000  0.000  0.000 -0.000
       0.000 -0.000 -0.000 -0.000  1.000
     occupation matrix ns (before diag.):
       0.955 -0.000 -0.000 -0.000  0.000
      -0.000  0.981 -0.000  0.000  0.000
      -0.000 -0.000  0.981  0.000  0.000
      -0.000  0.000  0.000  0.816 -0.000
       0.000  0.000  0.000 -0.000  0.985
     SPIN  2
     eigenvalues:
       0.950  0.972  0.988  0.988  0.991
     eigenvectors (columns):
      -0.000  1.000 -0.000 -0.000  0.000
      -0.000  0.000  0.000  1.000  0.000
      -0.000  0.000  1.000 -0.000  0.000
       1.000  0.000  0.000  0.000 -0.000
       0.000 -0.000 -0.000 -0.000  1.000
     occupation matrix ns (before diag.):
       0.972 -0.000 -0.000  0.000  0.000
      -0.000  0.988 -0.000  0.000  0.000
      -0.000 -0.000  0.988  0.000  0.000
       0.000  0.000  0.000  0.950 -0.000
       0.000  0.000  0.000 -0.000  0.991
     ------------------------ ATOM   23 ------------------------
     Tr[ns( 23)] (up, down, total) =   4.89039  4.71868  9.60907
     Atomic magnetic moment for atom  23 =   0.17170
     SPIN  1
     eigenvalues:
       0.950  0.972  0.988  0.988  0.991
     eigenvectors (columns):
      -0.000  1.000 -0.000 -0.000  0.000
      -0.000  0.000  0.293  0.956  0.000
      -0.000  0.000  0.956 -0.293  0.000
       1.000  0.000  0.000  0.000 -0.000
       0.000 -0.000 -0.000 -0.000  1.000
     occupation matrix ns (before diag.):
       0.972 -0.000 -0.000  0.000  0.000
      -0.000  0.988 -0.000  0.000  0.000
      -0.000 -0.000  0.988  0.000  0.000
       0.000  0.000  0.000  0.950 -0.000
       0.000  0.000  0.000 -0.000  0.991
     SPIN  2
     eigenvalues:
       0.816  0.955  0.981  0.981  0.985
     eigenvectors (columns):
      -0.000  1.000 -0.000 -0.000  0.000
      -0.000  0.000  0.323  0.946  0.000
      -0.000  0.000  0.946 -0.323  0.000
       1.000  0.000  0.000  0.000 -0.000
       0.000 -0.000 -0.000 -0.000  1.000
     occupation matrix ns (before diag.):
       0.955 -0.000 -0.000  0.000  0.000
      -0.000  0.981 -0.000  0.000  0.000
      -0.000 -0.000  0.981  0.000  0.000
       0.000  0.000  0.000  0.816 -0.000
       0.000  0.000  0.000 -0.000  0.985
     ------------------------ ATOM   24 ------------------------
     Tr[ns( 24)] (up, down, total) =   4.89039  4.71868  9.60907
     Atomic magnetic moment for atom  24 =   0.17170
     SPIN  1
     eigenvalues:
       0.950  0.972  0.988  0.988  0.991
     eigenvectors (columns):
      -0.000  1.000 -0.000 -0.000  0.000
      -0.000  0.000  0.317  0.949  0.000
      -0.000  0.000  0.949 -0.317  0.000
       1.000  0.000  0.000  0.000 -0.000
       0.000 -0.000 -0.000 -0.000  1.000
     occupation matrix ns (before diag.):
       0.972 -0.000 -0.000  0.000  0.000
      -0.000  0.988 -0.000  0.000  0.000
      -0.000 -0.000  0.988  0.000  0.000
       0.000  0.000  0.000  0.950 -0.000
       0.000  0.000  0.000 -0.000  0.991
     SPIN  2
     eigenvalues:
       0.816  0.955  0.981  0.981  0.985
     eigenvectors (columns):
      -0.000  1.000 -0.000 -0.000  0.000
      -0.000  0.000  0.306  0.952  0.000
      -0.000  0.000  0.952 -0.306  0.000
       1.000  0.000  0.000  0.000 -0.000
       0.000 -0.000 -0.000 -0.000  1.000
     occupation matrix ns (before diag.):
       0.955 -0.000 -0.000  0.000  0.000
      -0.000  0.981 -0.000  0.000  0.000
      -0.000 -0.000  0.981  0.000  0.000
       0.000  0.000  0.000  0.816 -0.000
       0.000  0.000  0.000 -0.000  0.985

     Number of occupied Hubbard levels =   76.8725

     negative rho (up, down):  3.848E-01 3.848E-01

     HUBBARD ENERGY =    0.3919  (Ry)

     total cpu time spent up to now is      147.5 secs

     total energy              =   -6554.50233473 Ry
     estimated scf accuracy    <       5.27849586 Ry

     total magnetization       =     0.00 Bohr mag/cell
     absolute magnetization    =     2.53 Bohr mag/cell

     iteration #  4     ecut=    60.00 Ry     beta= 0.10
     Davidson diagonalization with overlap

---- Real-time Memory Report at c_bands before calling an iterative solver
          2032 MiB given to the printing process from OS
             0 MiB allocation reported by mallinfo(arena+hblkhd)
          5607 MiB available memory on the node where the printing process lives
------------------
     ethr =  9.07E-04,  avg # of iterations =  1.0

     =================== HUBBARD OCCUPATIONS ===================
     ------------------------ ATOM   14 ------------------------
     Tr[ns( 14)] (up, down, total) =   4.87960  4.35060  9.23020
     Atomic magnetic moment for atom  14 =   0.52901
     SPIN  1
     eigenvalues:
       0.948  0.967  0.988  0.988  0.990
     eigenvectors (columns):
      -0.000  1.000 -0.000 -0.000  0.000
      -0.000  0.000  0.348  0.937  0.000
      -0.000  0.000  0.937 -0.348  0.000
       1.000  0.000  0.000  0.000 -0.000
       0.000 -0.000 -0.000 -0.000  1.000
     occupation matrix ns (before diag.):
       0.967 -0.000 -0.000  0.000  0.000
      -0.000  0.988 -0.000  0.000  0.000
      -0.000 -0.000  0.988  0.000  0.000
       0.000  0.000  0.000  0.948 -0.000
       0.000  0.000  0.000 -0.000  0.990
     SPIN  2
     eigenvalues:
       0.456  0.950  0.980  0.980  0.984
     eigenvectors (columns):
      -0.000  1.000 -0.000 -0.000  0.000
      -0.000  0.000  0.380  0.925  0.000
      -0.000  0.000  0.925 -0.380  0.000
       1.000  0.000  0.000  0.000 -0.000
       0.000 -0.000 -0.000 -0.000  1.000
     occupation matrix ns (before diag.):
       0.950 -0.000 -0.000  0.000  0.000
      -0.000  0.980 -0.000  0.000  0.000
      -0.000 -0.000  0.980  0.000  0.000
       0.000  0.000  0.000  0.456 -0.000
       0.000  0.000  0.000 -0.000  0.984
     ------------------------ ATOM   15 ------------------------
     Tr[ns( 15)] (up, down, total) =   4.87960  4.35060  9.23020
     Atomic magnetic moment for atom  15 =   0.52901
     SPIN  1
     eigenvalues:
       0.948  0.967  0.988  0.988  0.990
     eigenvectors (columns):
      -0.000  1.000 -0.000 -0.000  0.000
      -0.000  0.000  0.329  0.944  0.000
      -0.000  0.000  0.944 -0.329  0.000
       1.000  0.000  0.000  0.000 -0.000
       0.000 -0.000 -0.000 -0.000  1.000
     occupation matrix ns (before diag.):
       0.967 -0.000 -0.000  0.000  0.000
      -0.000  0.988 -0.000  0.000  0.000
      -0.000 -0.000  0.988  0.000  0.000
       0.000  0.000  0.000  0.948 -0.000
       0.000  0.000  0.000 -0.000  0.990
     SPIN  2
     eigenvalues:
       0.456  0.950  0.980  0.980  0.984
     eigenvectors (columns):
      -0.000  1.000 -0.000 -0.000  0.000
      -0.000  0.000  0.273  0.962  0.000
      -0.000  0.000  0.962 -0.273  0.000
       1.000  0.000  0.000  0.000 -0.000
       0.000 -0.000 -0.000 -0.000  1.000
     occupation matrix ns (before diag.):
       0.950 -0.000 -0.000  0.000  0.000
      -0.000  0.980 -0.000  0.000  0.000
      -0.000 -0.000  0.980  0.000  0.000
       0.000  0.000  0.000  0.456 -0.000
       0.000  0.000  0.000 -0.000  0.984
     ------------------------ ATOM   17 ------------------------
     Tr[ns( 17)] (up, down, total) =   4.35064  4.87961  9.23025
     Atomic magnetic moment for atom  17 =  -0.52897
     SPIN  1
     eigenvalues:
       0.456  0.950  0.980  0.980  0.984
     eigenvectors (columns):
       0.000  1.000 -0.000 -0.000  0.000
      -0.000  0.000  0.000  1.000  0.000
      -0.000  0.000  1.000 -0.000  0.000
       1.000 -0.000  0.000  0.000 -0.000
       0.000 -0.000 -0.000 -0.000  1.000
     occupation matrix ns (before diag.):
       0.950 -0.000 -0.000 -0.000  0.000
      -0.000  0.980 -0.000  0.000  0.000
      -0.000 -0.000  0.980  0.000  0.000
      -0.000  0.000  0.000  0.456 -0.000
       0.000  0.000  0.000 -0.000  0.984
     SPIN  2
     eigenvalues:
       0.948  0.967  0.988  0.988  0.990
     eigenvectors (columns):
       0.000  1.000 -0.000 -0.000  0.000
      -0.000  0.000  1.000 -0.000  0.000
      -0.000  0.000  0.000  1.000  0.000
       1.000 -0.000  0.000  0.000 -0.000
       0.000 -0.000 -0.000 -0.000  1.000
     occupation matrix ns (before diag.):
       0.967 -0.000 -0.000 -0.000  0.000
      -0.000  0.988 -0.000  0.000  0.000
      -0.000 -0.000  0.988  0.000  0.000
      -0.000  0.000  0.000  0.948 -0.000
       0.000  0.000  0.000 -0.000  0.990
     ------------------------ ATOM   18 ------------------------
     Tr[ns( 18)] (up, down, total) =   4.35064  4.87961  9.23025
     Atomic magnetic moment for atom  18 =  -0.52897
     SPIN  1
     eigenvalues:
       0.456  0.950  0.980  0.980  0.984
     eigenvectors (columns):
       0.000  1.000 -0.000 -0.000  0.000
      -0.000  0.000  0.000  1.000  0.000
      -0.000  0.000  1.000 -0.000  0.000
       1.000 -0.000  0.000  0.000 -0.000
       0.000 -0.000 -0.000 -0.000  1.000
     occupation matrix ns (before diag.):
       0.950 -0.000 -0.000 -0.000  0.000
      -0.000  0.980 -0.000  0.000  0.000
      -0.000 -0.000  0.980  0.000  0.000
      -0.000  0.000  0.000  0.456 -0.000
       0.000  0.000  0.000 -0.000  0.984
     SPIN  2
     eigenvalues:
       0.948  0.967  0.988  0.988  0.990
     eigenvectors (columns):
       0.000  1.000 -0.000 -0.000  0.000
      -0.000  0.000  1.000 -0.000  0.000
      -0.000  0.000  0.000  1.000  0.000
       1.000 -0.000  0.000  0.000 -0.000
       0.000 -0.000 -0.000 -0.000  1.000
     occupation matrix ns (before diag.):
       0.967 -0.000 -0.000 -0.000  0.000
      -0.000  0.988 -0.000  0.000  0.000
      -0.000 -0.000  0.988  0.000  0.000
      -0.000  0.000  0.000  0.948 -0.000
       0.000  0.000  0.000 -0.000  0.990
     ------------------------ ATOM   20 ------------------------
     Tr[ns( 20)] (up, down, total) =   4.35064  4.87961  9.23025
     Atomic magnetic moment for atom  20 =  -0.52897
     SPIN  1
     eigenvalues:
       0.456  0.950  0.980  0.980  0.984
     eigenvectors (columns):
      -0.000  1.000 -0.000 -0.000  0.000
      -0.000  0.000  1.000 -0.000  0.000
      -0.000  0.000  0.000  1.000  0.000
       1.000  0.000  0.000  0.000 -0.000
       0.000 -0.000 -0.000 -0.000  1.000
     occupation matrix ns (before diag.):
       0.950 -0.000 -0.000  0.000  0.000
      -0.000  0.980 -0.000  0.000  0.000
      -0.000 -0.000  0.980  0.000  0.000
       0.000  0.000  0.000  0.456 -0.000
       0.000  0.000  0.000 -0.000  0.984
     SPIN  2
     eigenvalues:
       0.948  0.967  0.988  0.988  0.990
     eigenvectors (columns):
      -0.000  1.000 -0.000 -0.000  0.000
      -0.000  0.000  0.000  1.000  0.000
      -0.000  0.000  1.000 -0.000  0.000
       1.000  0.000  0.000  0.000 -0.000
       0.000 -0.000 -0.000 -0.000  1.000
     occupation matrix ns (before diag.):
       0.967 -0.000 -0.000  0.000  0.000
      -0.000  0.988 -0.000  0.000  0.000
      -0.000 -0.000  0.988  0.000  0.000
       0.000  0.000  0.000  0.948 -0.000
       0.000  0.000  0.000 -0.000  0.990
     ------------------------ ATOM   21 ------------------------
     Tr[ns( 21)] (up, down, total) =   4.35064  4.87961  9.23025
     Atomic magnetic moment for atom  21 =  -0.52897
     SPIN  1
     eigenvalues:
       0.456  0.950  0.980  0.980  0.984
     eigenvectors (columns):
      -0.000  1.000 -0.000 -0.000  0.000
      -0.000  0.000  1.000 -0.000  0.000
      -0.000  0.000  0.000  1.000  0.000
       1.000  0.000  0.000  0.000 -0.000
       0.000 -0.000 -0.000 -0.000  1.000
     occupation matrix ns (before diag.):
       0.950 -0.000 -0.000  0.000  0.000
      -0.000  0.980 -0.000  0.000  0.000
      -0.000 -0.000  0.980  0.000  0.000
       0.000  0.000  0.000  0.456 -0.000
       0.000  0.000  0.000 -0.000  0.984
     SPIN  2
     eigenvalues:
       0.948  0.967  0.988  0.988  0.990
     eigenvectors (columns):
      -0.000  1.000 -0.000 -0.000  0.000
      -0.000  0.000  0.000  1.000  0.000
      -0.000  0.000  1.000 -0.000  0.000
       1.000  0.000  0.000  0.000 -0.000
       0.000 -0.000 -0.000 -0.000  1.000
     occupation matrix ns (before diag.):
       0.967 -0.000 -0.000  0.000  0.000
      -0.000  0.988 -0.000  0.000  0.000
      -0.000 -0.000  0.988  0.000  0.000
       0.000  0.000  0.000  0.948 -0.000
       0.000  0.000  0.000 -0.000  0.990
     ------------------------ ATOM   23 ------------------------
     Tr[ns( 23)] (up, down, total) =   4.87961  4.35063  9.23024
     Atomic magnetic moment for atom  23 =   0.52898
     SPIN  1
     eigenvalues:
       0.948  0.967  0.988  0.988  0.990
     eigenvectors (columns):
      -0.000  1.000 -0.000 -0.000  0.000
      -0.000  0.000  0.339  0.941  0.000
      -0.000  0.000  0.941 -0.339  0.000
       1.000  0.000  0.000  0.000 -0.000
       0.000 -0.000 -0.000 -0.000  1.000
     occupation matrix ns (before diag.):
       0.967 -0.000 -0.000  0.000  0.000
      -0.000  0.988 -0.000  0.000  0.000
      -0.000 -0.000  0.988  0.000  0.000
       0.000  0.000  0.000  0.948 -0.000
       0.000  0.000  0.000 -0.000  0.990
     SPIN  2
     eigenvalues:
       0.456  0.950  0.980  0.980  0.984
     eigenvectors (columns):
      -0.000  1.000 -0.000 -0.000  0.000
      -0.000  0.000  0.301  0.954  0.000
      -0.000  0.000  0.954 -0.301  0.000
       1.000  0.000  0.000  0.000 -0.000
       0.000 -0.000 -0.000 -0.000  1.000
[...]
     7.8217   8.0074   8.0074   8.2439   8.3154   8.3334   8.3479   8.3479
     8.3657   8.3691   8.3691   8.3744   8.5996   8.5996   8.6107   8.6107
     8.6181   8.6620   8.6665   8.7948   8.7984   8.8009   8.8408   8.8456
     8.8876   8.9646   8.9859   8.9990   9.0285   9.0757   9.0757   9.0985
     9.1050   9.1050   9.1163   9.1724   9.2054   9.2638   9.2942   9.2942
     9.4584   9.4584   9.4681   9.4699   9.4792   9.5922   9.6297   9.6536
     9.7860   9.7860   9.8021   9.8545   9.9472   9.9472  10.0115  10.0115
    10.0259  10.0800  10.0800  10.2843  10.5217  10.5217  10.6123  10.6123
    10.6919  11.1799  12.5035  12.5035  13.2224  13.2955  13.5389  13.5553
    13.5553  13.7378  13.8370  13.8483  13.9686  15.1095  15.1125  15.1477
    15.1564  15.1564  15.2099  15.5979  15.6267  15.8829  15.8829  16.0840
    16.1383  16.3200  16.3245  16.3892  16.3892  16.4457  16.4457  16.4537
    16.4537  16.5019  16.5726  16.6463  16.6723  16.6723  17.1545  17.1620
    17.1742  17.2681  17.2681  17.3854  17.3861  17.7551  17.9543  17.9543
    18.0701  18.0701

     occupation numbers 
     1.0000   1.0000   1.0000   1.0000   1.0000   1.0000   1.0000   1.0000
     1.0000   1.0000   1.0000   1.0000   1.0000   1.0000   1.0000   1.0000
     1.0000   1.0000   1.0000   1.0000   1.0000   1.0000   1.0000   1.0000
     1.0000   1.0000   1.0000   1.0000   1.0000   1.0000   1.0000   1.0000
     1.0000   1.0000   1.0000   1.0000   1.0000   1.0000   1.0000   1.0000
     1.0000   1.0000   1.0000   1.0000   1.0000   1.0000   1.0000   1.0000
     1.0000   1.0000   1.0000   1.0000   1.0000   1.0000   1.0000   1.0000
     1.0000   1.0000   1.0000   1.0000   1.0000   1.0000   1.0000   1.0000
     1.0000   1.0000   1.0000   1.0000   1.0000   1.0000   1.0000   1.0000
     1.0000   1.0000   1.0000   1.0000   1.0000   1.0000   1.0000   1.0000
     1.0000   1.0000   1.0000   1.0000   1.0000   1.0000   1.0000   1.0000
     1.0000   1.0000   1.0000   1.0000   1.0000   1.0000   1.0000   1.0000
     1.0000   1.0000   1.0000   1.0000   1.0000   1.0000   1.0000   1.0000
     1.0000   1.0000   1.0000   1.0000   1.0000   1.0000   1.0000   1.0000
     1.0000   1.0000   1.0000   1.0000   1.0000   1.0000   1.0000   1.0000
     1.0000   1.0000   1.0000   1.0000   1.0000   1.0000   1.0000   1.0000
     1.0000   1.0000   1.0000   1.0000   1.0000   1.0000   1.0000   1.0000
     1.0000   1.0000   1.0000   1.0000   1.0000   1.0000   1.0000   1.0000
     1.0000   1.0000   1.0000   1.0000   1.0000   1.0000   1.0000   1.0000
     1.0000   1.0000   1.0000   1.0000   1.0000   1.0000   1.0000   1.0000
     1.0000   1.0000   1.0000   1.0000   1.0000   1.0000   1.0000   1.0000
     1.0000   1.0000   1.0000   1.0000   1.0000   1.0000   1.0000   1.0000
     1.0000   1.0000   1.0000   1.0000   1.0000   1.0000   1.0000   1.0000
     1.0000   1.0000   1.0000   1.0000   1.0000   1.0000   1.0000   1.0000
     1.0000   1.0000   1.0000   1.0000   1.0000   1.0000   1.0000   1.0000
     1.0000   1.0000   1.0000   1.0000   1.0000   1.0000   1.0000   1.0000
     1.0000   1.0000   1.0000   1.0000   1.0000   1.0000   1.0000   1.0000
     1.0000   1.0000   1.0000   1.0000   1.0000   1.0000   1.0000   1.0000
     1.0000   1.0000   1.0000   1.0000   1.0000   1.0000   1.0000   1.0000
     1.0000   1.0000   1.0000   1.0000   1.0000   1.0000   1.0000   1.0000
     1.0000   1.0000   1.0000   1.0003   1.0292   1.0292   0.7967   0.7967
     0.3302  -0.0000  -0.0000  -0.0000  -0.0000  -0.0000  -0.0000  -0.0000
    -0.0000  -0.0000  -0.0000  -0.0000  -0.0000  -0.0000  -0.0000  -0.0000
    -0.0000  -0.0000  -0.0000  -0.0000  -0.0000  -0.0000  -0.0000  -0.0000
    -0.0000  -0.0000  -0.0000  -0.0000  -0.0000  -0.0000  -0.0000  -0.0000
    -0.0000  -0.0000  -0.0000  -0.0000  -0.0000  -0.0000  -0.0000  -0.0000
    -0.0000  -0.0000  -0.0000  -0.0000  -0.0000  -0.0000  -0.0000  -0.0000
    -0.0000  -0.0000

 ------ SPIN DOWN ----------


          k = 0.0000 0.0000 0.0000 ( 35361 PWs)   bands (ev):

  -100.4780-100.4779-100.4779-100.4779-100.3255-100.3254-100.3253-100.3253
   -99.9421 -99.9421 -99.9420 -99.9420 -58.5284 -58.5284 -58.5284 -58.5284
   -58.5282 -58.5282 -58.5282 -58.5282 -58.3751 -58.3751 -58.3747 -58.3747
   -58.0721 -58.0721 -58.0720 -58.0720 -58.0718 -58.0718 -58.0718 -58.0718
   -57.9149 -57.9149 -57.9132 -57.9132 -57.9084 -57.9084 -57.9084 -57.9084
   -57.9083 -57.9083 -57.9083 -57.9083 -57.6255 -57.6255 -57.6237 -57.6237
   -29.8799 -29.8620 -29.8620 -29.8446 -15.3777 -15.3706 -15.2312 -15.2312
   -15.2258 -15.2258 -15.1189 -15.1133 -10.6954 -10.6913 -10.6758 -10.6232
   -10.6232 -10.3634 -10.3634 -10.0933  -9.9628  -9.9628  -9.9397  -9.9372
    -7.4965  -6.8063  -6.7909  -6.6635  -6.6566  -6.5991  -6.5991  -6.4063
    -6.4063  -6.3283  -6.3163  -6.2590  -6.2112  -6.2025  -6.1719  -5.9824
    -5.9688  -5.9509  -5.8983  -5.8643  -5.8343  -5.8343  -5.7379  -5.7379
    -1.1135  -1.1135  -1.1007  -1.1007  -0.7146  -0.7025  -0.6962  -0.6962
    -0.5227  -0.5123  -0.5123  -0.4711  -0.3790  -0.3768  -0.2873  -0.2854
    -0.2085  -0.2085  -0.2049  -0.2049   0.0476   0.0477   0.0561   0.0563
     3.2545   3.8812   4.2385   4.3760   4.6513   4.8198   4.9071   5.0023
     5.0608   5.4845   5.5405   5.6339   5.6349   5.6447   5.6476   5.6476
     5.7192   5.7192   5.7324   5.7660   5.8867   6.0286   6.0286   6.1508
     6.1508   6.2446   6.3376   6.3376   6.3696   6.3696   6.4708   6.6373
     6.6373   6.7218   6.7218   6.8376   6.8376   6.9525   6.9906   6.9910
     7.0304   7.0413   7.0543   7.0801   7.1920   7.1920   7.2648   7.3274
     7.3463   7.3463   7.3931   7.3931   7.4031   7.4031   7.4760   7.4760
     7.7082   7.7276   7.7276   7.7539   7.7539   7.7609   7.7609   7.8490
     7.8579   7.9409   8.0372   8.0372   8.1771   8.2343   8.2654   8.3437
     8.3437   8.3670   8.3670   8.3754   8.4566   8.5892   8.5892   8.6115
     8.6588   8.6806   8.6806   8.6975   8.7440   8.7981   8.7986   8.8875
     8.8997   8.8997   8.9590   8.9990   9.1089   9.1089   9.1106   9.1740
     9.1917   9.2038   9.2593   9.2638   9.2653   9.3823   9.4043   9.4043
     9.4072   9.4128   9.4649   9.5448   9.5448   9.5942   9.6319   9.6379
     9.7108   9.7108   9.8035   9.8141   9.8141   9.8545   9.8749  10.0801
    10.0801  10.1554  10.1554  10.3667  10.5145  10.5145  10.6150  10.6150
    10.6833  11.2172  12.4531  12.4531  13.1800  13.2223  13.2955  13.5413
    13.5413  13.5697  13.7537  13.9777  14.0830  15.0253  15.0680  15.0738
    15.3300  15.3414  15.3414  15.8178  15.8823  15.8823  16.0841  16.2474
    16.2474  16.3389  16.3419  16.4542  16.4722  16.4722  16.4809  16.5058
    16.5391  16.5391  16.5788  16.6658  16.6986  16.6986  16.7622  17.0589
    17.1824  17.1847  17.5591  17.5595  17.7439  17.7439  17.9178  17.9189
    17.9306  17.9306

     occupation numbers 
     1.0000   1.0000   1.0000   1.0000   1.0000   1.0000   1.0000   1.0000
     1.0000   1.0000   1.0000   1.0000   1.0000   1.0000   1.0000   1.0000
     1.0000   1.0000   1.0000   1.0000   1.0000   1.0000   1.0000   1.0000
     1.0000   1.0000   1.0000   1.0000   1.0000   1.0000   1.0000   1.0000
     1.0000   1.0000   1.0000   1.0000   1.0000   1.0000   1.0000   1.0000
     1.0000   1.0000   1.0000   1.0000   1.0000   1.0000   1.0000   1.0000
     1.0000   1.0000   1.0000   1.0000   1.0000   1.0000   1.0000   1.0000
     1.0000   1.0000   1.0000   1.0000   1.0000   1.0000   1.0000   1.0000
     1.0000   1.0000   1.0000   1.0000   1.0000   1.0000   1.0000   1.0000
     1.0000   1.0000   1.0000   1.0000   1.0000   1.0000   1.0000   1.0000
     1.0000   1.0000   1.0000   1.0000   1.0000   1.0000   1.0000   1.0000
     1.0000   1.0000   1.0000   1.0000   1.0000   1.0000   1.0000   1.0000
     1.0000   1.0000   1.0000   1.0000   1.0000   1.0000   1.0000   1.0000
     1.0000   1.0000   1.0000   1.0000   1.0000   1.0000   1.0000   1.0000
     1.0000   1.0000   1.0000   1.0000   1.0000   1.0000   1.0000   1.0000
     1.0000   1.0000   1.0000   1.0000   1.0000   1.0000   1.0000   1.0000
     1.0000   1.0000   1.0000   1.0000   1.0000   1.0000   1.0000   1.0000
     1.0000   1.0000   1.0000   1.0000   1.0000   1.0000   1.0000   1.0000
     1.0000   1.0000   1.0000   1.0000   1.0000   1.0000   1.0000   1.0000
     1.0000   1.0000   1.0000   1.0000   1.0000   1.0000   1.0000   1.0000
     1.0000   1.0000   1.0000   1.0000   1.0000   1.0000   1.0000   1.0000
     1.0000   1.0000   1.0000   1.0000   1.0000   1.0000   1.0000   1.0000
     1.0000   1.0000   1.0000   1.0000   1.0000   1.0000   1.0000   1.0000
     1.0000   1.0000   1.0000   1.0000   1.0000   1.0000   1.0000   1.0000
     1.0000   1.0000   1.0000   1.0000   1.0000   1.0000   1.0000   1.0000
     1.0000   1.0000   1.0000   1.0000   1.0000   1.0000   1.0000   1.0000
     1.0000   1.0000   1.0000   1.0000   1.0000   1.0000   1.0000   1.0000
     1.0000   1.0000   1.0000   1.0000   1.0000   1.0000   1.0000   1.0000
     1.0000   1.0000   1.0000   1.0000   1.0000   1.0000   1.0000   1.0000
     1.0000   1.0000   1.0000   1.0000   1.0000   1.0000   1.0000   1.0000
     1.0000   1.0000   1.0000   1.0042   1.0326   1.0326   0.7837   0.7837
     0.3809  -0.0000  -0.0000  -0.0000  -0.0000  -0.0000  -0.0000  -0.0000
    -0.0000  -0.0000  -0.0000  -0.0000  -0.0000  -0.0000  -0.0000  -0.0000
    -0.0000  -0.0000  -0.0000  -0.0000  -0.0000  -0.0000  -0.0000  -0.0000
    -0.0000  -0.0000  -0.0000  -0.0000  -0.0000  -0.0000  -0.0000  -0.0000
    -0.0000  -0.0000  -0.0000  -0.0000  -0.0000  -0.0000  -0.0000  -0.0000
    -0.0000  -0.0000  -0.0000  -0.0000  -0.0000  -0.0000  -0.0000  -0.0000
    -0.0000  -0.0000

          k = 0.0000 0.0000-0.3279 ( 35390 PWs)   bands (ev):

  -100.4780-100.4779-100.4779-100.4779-100.3255-100.3254-100.3253-100.3253
   -99.9421 -99.9421 -99.9420 -99.9420 -58.5284 -58.5284 -58.5284 -58.5284
   -58.5282 -58.5282 -58.5282 -58.5282 -58.3751 -58.3751 -58.3747 -58.3747
   -58.0721 -58.0721 -58.0720 -58.0720 -58.0718 -58.0718 -58.0718 -58.0718
   -57.9149 -57.9149 -57.9132 -57.9132 -57.9084 -57.9084 -57.9084 -57.9084
   -57.9083 -57.9083 -57.9083 -57.9083 -57.6255 -57.6255 -57.6237 -57.6237
   -29.8799 -29.8620 -29.8620 -29.8446 -15.3806 -15.3677 -15.2332 -15.2332
   -15.2237 -15.2237 -15.1204 -15.1118 -10.6954 -10.6913 -10.6760 -10.6232
   -10.6232 -10.3635 -10.3635 -10.0934  -9.9628  -9.9628  -9.9397  -9.9372
    -7.4951  -6.8668  -6.8541  -6.5984  -6.5984  -6.4732  -6.4620  -6.4063
    -6.4063  -6.3943  -6.3860  -6.3282  -6.3177  -6.2586  -6.1719  -5.9825
    -5.9153  -5.8990  -5.8986  -5.8643  -5.8351  -5.8351  -5.7378  -5.7378
    -1.1190  -1.1190  -1.0952  -1.0952  -0.6575  -0.6575  -0.6494  -0.6477
    -0.5918  -0.5532  -0.5532  -0.5292  -0.3807  -0.3788  -0.2860  -0.2838
    -0.2126  -0.2126  -0.2007  -0.2007   0.0433   0.0434   0.0605   0.0606
     3.2733   3.8534   4.2474   4.3687   4.6671   4.8072   4.9373   5.0023
     5.0608   5.5037   5.5519   5.6198   5.6379   5.6384   5.6489   5.6489
     5.7047   5.7047   5.7307   5.7948   5.8849   6.0271   6.0271   6.1492
     6.1492   6.2463   6.3335   6.3335   6.4728   6.5140   6.5140   6.6467
     6.6467   6.7547   6.7547   6.8119   6.8119   6.8591   6.8601   6.9385
     6.9385   6.9536   6.9665   6.9942   7.0886   7.1191   7.2652   7.3269
     7.3914   7.3914   7.3985   7.3985   7.4045   7.4045   7.4801   7.4801
     7.7459   7.7459   7.7679   7.7679   7.7838   7.8033   7.8090   7.8090
     7.8216   8.0074   8.0074   8.2439   8.3154   8.3334   8.3479   8.3479
     8.3657   8.3691   8.3691   8.3744   8.5995   8.5995   8.6107   8.6107
     8.6181   8.6620   8.6665   8.7948   8.7984   8.8008   8.8408   8.8456
     8.8875   8.9646   8.9858   8.9990   9.0285   9.0757   9.0757   9.0985
     9.1050   9.1050   9.1163   9.1724   9.2054   9.2638   9.2942   9.2942
     9.4584   9.4584   9.4681   9.4699   9.4792   9.5922   9.6297   9.6536
     9.7860   9.7860   9.8021   9.8545   9.9471   9.9471  10.0115  10.0115
    10.0259  10.0799  10.0799  10.2843  10.5217  10.5217  10.6123  10.6123
    10.6918  11.1799  12.5035  12.5035  13.2224  13.2955  13.5389  13.5553
    13.5553  13.7378  13.8370  13.8483  13.9686  15.1094  15.1125  15.1477
    15.1564  15.1564  15.2099  15.5979  15.6267  15.8829  15.8829  16.0840
    16.1383  16.3200  16.3245  16.3892  16.3892  16.4457  16.4457  16.4537
    16.4537  16.5019  16.5726  16.6463  16.6723  16.6723  17.1545  17.1620
    17.1742  17.2681  17.2681  17.3854  17.3861  17.7551  17.9543  18.0700
    18.0701  18.2315

     occupation numbers 
     1.0000   1.0000   1.0000   1.0000   1.0000   1.0000   1.0000   1.0000
     1.0000   1.0000   1.0000   1.0000   1.0000   1.0000   1.0000   1.0000
     1.0000   1.0000   1.0000   1.0000   1.0000   1.0000   1.0000   1.0000
     1.0000   1.0000   1.0000   1.0000   1.0000   1.0000   1.0000   1.0000
     1.0000   1.0000   1.0000   1.0000   1.0000   1.0000   1.0000   1.0000
     1.0000   1.0000   1.0000   1.0000   1.0000   1.0000   1.0000   1.0000
     1.0000   1.0000   1.0000   1.0000   1.0000   1.0000   1.0000   1.0000
     1.0000   1.0000   1.0000   1.0000   1.0000   1.0000   1.0000   1.0000
     1.0000   1.0000   1.0000   1.0000   1.0000   1.0000   1.0000   1.0000
     1.0000   1.0000   1.0000   1.0000   1.0000   1.0000   1.0000   1.0000
     1.0000   1.0000   1.0000   1.0000   1.0000   1.0000   1.0000   1.0000
     1.0000   1.0000   1.0000   1.0000   1.0000   1.0000   1.0000   1.0000
     1.0000   1.0000   1.0000   1.0000   1.0000   1.0000   1.0000   1.0000
     1.0000   1.0000   1.0000   1.0000   1.0000   1.0000   1.0000   1.0000
     1.0000   1.0000   1.0000   1.0000   1.0000   1.0000   1.0000   1.0000
     1.0000   1.0000   1.0000   1.0000   1.0000   1.0000   1.0000   1.0000
     1.0000   1.0000   1.0000   1.0000   1.0000   1.0000   1.0000   1.0000
     1.0000   1.0000   1.0000   1.0000   1.0000   1.0000   1.0000   1.0000
     1.0000   1.0000   1.0000   1.0000   1.0000   1.0000   1.0000   1.0000
     1.0000   1.0000   1.0000   1.0000   1.0000   1.0000   1.0000   1.0000
     1.0000   1.0000   1.0000   1.0000   1.0000   1.0000   1.0000   1.0000
     1.0000   1.0000   1.0000   1.0000   1.0000   1.0000   1.0000   1.0000
     1.0000   1.0000   1.0000   1.0000   1.0000   1.0000   1.0000   1.0000
     1.0000   1.0000   1.0000   1.0000   1.0000   1.0000   1.0000   1.0000
     1.0000   1.0000   1.0000   1.0000   1.0000   1.0000   1.0000   1.0000
     1.0000   1.0000   1.0000   1.0000   1.0000   1.0000   1.0000   1.0000
     1.0000   1.0000   1.0000   1.0000   1.0000   1.0000   1.0000   1.0000
     1.0000   1.0000   1.0000   1.0000   1.0000   1.0000   1.0000   1.0000
     1.0000   1.0000   1.0000   1.0000   1.0000   1.0000   1.0000   1.0000
     1.0000   1.0000   1.0000   1.0000   1.0000   1.0000   1.0000   1.0000
     1.0000   1.0000   1.0000   1.0003   1.0292   1.0292   0.7969   0.7969
     0.3303  -0.0000  -0.0000  -0.0000  -0.0000  -0.0000  -0.0000  -0.0000
    -0.0000  -0.0000  -0.0000  -0.0000  -0.0000  -0.0000  -0.0000  -0.0000
    -0.0000  -0.0000  -0.0000  -0.0000  -0.0000  -0.0000  -0.0000  -0.0000
    -0.0000  -0.0000  -0.0000  -0.0000  -0.0000  -0.0000  -0.0000  -0.0000
    -0.0000  -0.0000  -0.0000  -0.0000  -0.0000  -0.0000  -0.0000  -0.0000
    -0.0000  -0.0000  -0.0000  -0.0000  -0.0000  -0.0000  -0.0000  -0.0000
    -0.0000  -0.0000

     the Fermi energy is    10.6639 ev

!    total energy              =   -6554.63006438 Ry
     estimated scf accuracy    <          9.1E-09 Ry
     smearing contrib. (-TS)   =      -0.00371823 Ry
     internal energy E=F+TS    =   -6554.62634615 Ry

     The total energy is F=E-TS. E is the sum of the following terms:
     one-electron contribution =   -5521.56959671 Ry
     hartree contribution      =    3039.52266150 Ry
     xc contribution           =    -965.52067716 Ry
     ewald contribution        =   -3107.44375877 Ry
     Hubbard energy            =       0.38502499 Ry

     total magnetization       =    -0.00 Bohr mag/cell
     absolute magnetization    =     4.06 Bohr mag/cell

     convergence has been achieved in  63 iterations

     Writing all to output data dir ./YBCO6/YBCO6.save/
 
     init_run     :     19.79s CPU     20.72s WALL (       1 calls)
     electrons    :   2331.90s CPU   2449.43s WALL (       1 calls)

     Called by init_run:
     wfcinit      :     15.35s CPU     15.57s WALL (       1 calls)
     wfcinit:atom :      0.06s CPU      0.10s WALL (       4 calls)
     wfcinit:wfcr :      9.95s CPU     10.05s WALL (       4 calls)
     potinit      :      0.10s CPU      0.13s WALL (       1 calls)
     hinit0       :      0.91s CPU      0.92s WALL (       1 calls)

     Called by electrons:
     c_bands      :   1419.37s CPU   1441.88s WALL (      63 calls)
     sum_band     :    683.90s CPU    737.99s WALL (      63 calls)
     v_of_rho     :      3.62s CPU      3.78s WALL (      64 calls)
     v_h          :      1.09s CPU      1.19s WALL (      64 calls)
     v_xc         :      2.52s CPU      2.58s WALL (      64 calls)
     newd         :    220.38s CPU    261.34s WALL (      64 calls)
     mix_rho      :      5.56s CPU      5.87s WALL (      63 calls)

     Called by c_bands:
     init_us_2    :     13.71s CPU     13.78s WALL (     512 calls)
     init_us_2:cp :     13.70s CPU     13.78s WALL (     512 calls)
     cegterg      :   1348.45s CPU   1370.49s WALL (     252 calls)

     Called by sum_band:
     sum_band:wei :      0.06s CPU      0.06s WALL (      63 calls)
     sum_band:loo :    199.46s CPU    202.27s WALL (      63 calls)
     sum_band:buf :      2.27s CPU      2.29s WALL (     252 calls)
     sum_band:ini :      6.76s CPU      6.76s WALL (     252 calls)
     sum_band:cal :     80.66s CPU     80.98s WALL (     252 calls)
     sum_band:bec :      0.29s CPU      0.29s WALL (     252 calls)
     addusdens    :    473.19s CPU    522.95s WALL (      63 calls)
                                        0.00s GPU  (      63 calls)
     addusd:skk   :      2.01s CPU      2.84s WALL (     378 calls)
                                        0.00s GPU  (     378 calls)

     Called by *egterg:
     cdiaghg      :     56.52s CPU     59.01s WALL (     740 calls)
     cegterg:over :    130.42s CPU    131.54s WALL (     488 calls)
     cegterg:upda :     72.85s CPU     74.94s WALL (     488 calls)
     cegterg:last :    141.68s CPU    142.10s WALL (     374 calls)
     cdiaghg:chol :      1.21s CPU      1.30s WALL (     740 calls)
     cdiaghg:inve :      0.65s CPU      0.75s WALL (     740 calls)
     cdiaghg:para :     11.95s CPU     13.01s WALL (    1480 calls)
     h_psi        :    718.45s CPU    728.45s WALL (     744 calls)
     s_psi        :    175.62s CPU    175.97s WALL (     748 calls)
     g_psi        :      2.30s CPU      2.31s WALL (     488 calls)

     Called by h_psi:
     h_psi:calbec :    172.18s CPU    172.86s WALL (     744 calls)
     vloc_psi     :    312.56s CPU    317.98s WALL (     744 calls)
     add_vuspsi   :    177.55s CPU    177.58s WALL (     744 calls)
     vhpsi        :     51.82s CPU     52.44s WALL (     744 calls)

     General routines
     calbec       :    269.54s CPU    271.16s WALL (    1996 calls)
     fft          :      5.77s CPU      6.33s WALL (     698 calls)
     ffts         :      0.33s CPU      0.35s WALL (     254 calls)
     fftw         :    215.86s CPU    220.08s WALL (  385076 calls)
     interpolate  :      1.46s CPU      1.56s WALL (     128 calls)
     davcio       :      0.00s CPU      0.03s WALL (       4 calls)
 
     Parallel routines

     Hubbard U routines
     new_ns       :      6.98s CPU      7.00s WALL (      63 calls)
     vhpsi        :     51.82s CPU     52.44s WALL (     744 calls)
 
     PWSCF        :  39m12.01s CPU  41m10.77s WALL

 
   This run was terminated on:  19:57:28   1Jan2024            

=------------------------------------------------------------------------------=
   JOB DONE.
=------------------------------------------------------------------------------=
