
     Program PWSCF v.7.2 starts on  9Dec2023 at 15:24:58 

     This program is part of the open-source Quantum ESPRESSO suite
     for quantum simulation of materials; please cite
         "P. Giannozzi et al., J. Phys.:Condens. Matter 21 395502 (2009);
         "P. Giannozzi et al., J. Phys.:Condens. Matter 29 465901 (2017);
         "P. Giannozzi et al., J. Chem. Phys. 152 154105 (2020);
          URL http://www.quantum-espresso.org", 
     in publications or presentations arising from this work. More details at
     http://www.quantum-espresso.org/quote

     Parallel version (MPI), running on     4 processors

     MPI processes distributed on     1 nodes
     14622 MiB available memory on the printing compute node when the environment starts
 
     Waiting for input...
     Reading input from standard input
Warning: card &CELL ignored
Warning: card / ignored

     Current dimensions of program PWSCF are:
     Max number of different atomic species (ntypx) = 10
     Max number of k-points (npk) =  40000
     Max angular momentum in pseudopotentials (lmaxx) =  4

     File ./YBCO.relax/YBCO.relax.update deleted, as requested

     File ./YBCO.relax/YBCO.relax.bfgs deleted, as requested
     Found identity + ( -0.5000 -0.5000  0.0000) symmetry
     This is a supercell, fractional translations are disabled
 
     R & G space division:  proc/nbgrp/npool/nimage =       4
     Subspace diagonalization in iterative solution of the eigenvalue problem:
     one sub-group per band group will be used
     custom distributed-memory algorithm (size of sub-group:  2*  2 procs)

 
     Parallelization info
     --------------------
     sticks:   dense  smooth     PW     G-vecs:    dense   smooth      PW
     Min        3100    1555    391               405588   143407   17945
     Max        3101    1556    392               405599   143416   17950
     Sum       12401    6221   1565              1622363   573639   71785
 
     Using Slab Decomposition
 


     bravais-lattice index     =            6
     lattice parameter (alat)  =      14.7368  a.u.
     unit-cell volume          =    4973.6681 (a.u.)^3
     number of atoms/cell      =           48
     number of atomic types    =            6
     number of electrons       =       496.00
     number of Kohn-Sham states=          298
     kinetic-energy cutoff     =      90.0000  Ry
     charge density cutoff     =     720.0000  Ry
     scf convergence threshold =      1.0E-08
     mixing beta               =       0.1000
     number of iterations used =            8  plain     mixing
     energy convergence thresh.=      1.0E-04
     force convergence thresh. =      1.0E-03
     Exchange-correlation= SLA  PW   PBE  PBE
                           (   1   4   3   4   0   0   0)
     nstep                     =           50

     Hubbard projectors: ortho-atomic
     Hubbard parameters of DFT+U (Dudarev formulation) in eV:
     U(Cu1-3d) = 10.0000
     U(Cu2-3d) = 10.0000

     Internal variables: lda_plus_u = T, lda_plus_u_kind = 0

     celldm(1)=  14.736798  celldm(2)=   0.000000  celldm(3)=   1.554059
     celldm(4)=   0.000000  celldm(5)=   0.000000  celldm(6)=   0.000000

     crystal axes: (cart. coord. in units of alat)
               a(1) = (   1.000000   0.000000   0.000000 )  
               a(2) = (   0.000000   1.000000   0.000000 )  
               a(3) = (   0.000000   0.000000   1.554059 )  

     reciprocal axes: (cart. coord. in units 2 pi/alat)
               b(1) = (  1.000000  0.000000  0.000000 )  
               b(2) = (  0.000000  1.000000  0.000000 )  
               b(3) = (  0.000000  0.000000  0.643476 )  


     PseudoPot. # 1 for Y  read from file:
     ~/q-e/pseudo/all_pbe_UPF_v1.5/y_pbe_v1.4.uspp.F.UPF
     MD5 check sum: Not computed, couldn't open file
     Pseudo is Ultrasoft + core correction, Zval = 11.0
     Generated by new atomic code, or converted to UPF format
     Using radial grid of  885 points,  6 beta functions with: 
                l(1) =   0
                l(2) =   0
                l(3) =   1
                l(4) =   1
                l(5) =   2
                l(6) =   2
     Q(r) pseudized with  8 coefficients,  rinner =    1.200   1.200   1.200
                                                       1.200   1.200

     PseudoPot. # 2 for Ba read from file:
     ~/q-e/pseudo/all_pbe_UPF_v1.5/ba_pbe_v1.uspp.F.UPF
     MD5 check sum: Not computed, couldn't open file
     Pseudo is Ultrasoft + core correction, Zval = 10.0
     Generated by new atomic code, or converted to UPF format
     Using radial grid of  907 points,  7 beta functions with: 
                l(1) =   0
                l(2) =   0
                l(3) =   1
                l(4) =   1
                l(5) =   2
                l(6) =   2
                l(7) =   3
     Q(r) pseudized with  6 coefficients,  rinner =    1.700   1.700   1.700
                                                       1.700   1.700   1.700
                                                       1.700

     PseudoPot. # 3 for Cu read from file:
     ~/q-e/pseudo/all_pbe_UPF_v1.5/cu_pbe_v1.2.uspp.F.UPF
     MD5 check sum: Not computed, couldn't open file
     Pseudo is Ultrasoft + core correction, Zval = 19.0
     Generated by new atomic code, or converted to UPF format
     Using radial grid of  867 points,  6 beta functions with: 
                l(1) =   0
                l(2) =   0
                l(3) =   1
                l(4) =   1
                l(5) =   2
                l(6) =   2
     Q(r) pseudized with  8 coefficients,  rinner =    1.150   1.150   1.150
                                                       1.150   1.150

     PseudoPot. # 4 for Cu read from file:
     ~/q-e/pseudo/all_pbe_UPF_v1.5/cu_pbe_v1.2.uspp.F.UPF
     MD5 check sum: Not computed, couldn't open file
     Pseudo is Ultrasoft + core correction, Zval = 19.0
     Generated by new atomic code, or converted to UPF format
     Using radial grid of  867 points,  6 beta functions with: 
                l(1) =   0
                l(2) =   0
                l(3) =   1
                l(4) =   1
                l(5) =   2
                l(6) =   2
     Q(r) pseudized with  8 coefficients,  rinner =    1.150   1.150   1.150
                                                       1.150   1.150

     PseudoPot. # 5 for Cu read from file:
     ~/q-e/pseudo/all_pbe_UPF_v1.5/cu_pbe_v1.2.uspp.F.UPF
     MD5 check sum: Not computed, couldn't open file
     Pseudo is Ultrasoft + core correction, Zval = 19.0
     Generated by new atomic code, or converted to UPF format
     Using radial grid of  867 points,  6 beta functions with: 
                l(1) =   0
                l(2) =   0
                l(3) =   1
                l(4) =   1
                l(5) =   2
                l(6) =   2
     Q(r) pseudized with  8 coefficients,  rinner =    1.150   1.150   1.150
                                                       1.150   1.150

     PseudoPot. # 6 for O  read from file:
     ~/q-e/pseudo/all_pbe_UPF_v1.5/o_pbe_v1.2.uspp.F.UPF
     MD5 check sum: Not computed, couldn't open file
     Pseudo is Ultrasoft + core correction, Zval =  6.0
     Generated by new atomic code, or converted to UPF format
     Using radial grid of  737 points,  5 beta functions with: 
                l(1) =   0
                l(2) =   0
                l(3) =   1
                l(4) =   1
                l(5) =   2
     Q(r) pseudized with  8 coefficients,  rinner =    0.900   0.900   0.900
                                                       0.900   0.900

     atomic species   valence    mass     pseudopotential
     Y                11.00    88.90584     Y ( 1.00)
     Ba               10.00   137.32700     Ba( 1.00)
     Cu               19.00    63.54600     Cu( 1.00)
     Cu1              19.00    63.54600     Cu( 1.00)
     Cu2              19.00    63.54600     Cu( 1.00)
     O                 6.00    15.99900     O ( 1.00)

      4 Sym. Ops. (no inversion) found


                                    s                        frac. trans.

      isym =  1     identity                                     

 cryst.   s( 1) = (     1          0          0      )
                  (     0          1          0      )
                  (     0          0          1      )

 cart.    s( 1) = (  1.0000000  0.0000000  0.0000000 )
                  (  0.0000000  1.0000000  0.0000000 )
                  (  0.0000000  0.0000000  1.0000000 )


      isym =  2     180 deg rotation - cart. axis [0,0,1]        

 cryst.   s( 2) = (    -1          0          0      )
                  (     0         -1          0      )
                  (     0          0          1      )

 cart.    s( 2) = ( -1.0000000  0.0000000  0.0000000 )
                  (  0.0000000 -1.0000000  0.0000000 )
                  (  0.0000000  0.0000000  1.0000000 )


      isym =  3     inv. 180 deg rotation - cart. axis [0,1,0]   

 cryst.   s( 3) = (     1          0          0      )
                  (     0         -1          0      )
                  (     0          0          1      )

 cart.    s( 3) = (  1.0000000  0.0000000  0.0000000 )
                  (  0.0000000 -1.0000000  0.0000000 )
                  (  0.0000000  0.0000000  1.0000000 )


      isym =  4     inv. 180 deg rotation - cart. axis [1,0,0]   

 cryst.   s( 4) = (    -1          0          0      )
                  (     0          1          0      )
                  (     0          0          1      )

 cart.    s( 4) = ( -1.0000000  0.0000000  0.0000000 )
                  (  0.0000000  1.0000000  0.0000000 )
                  (  0.0000000  0.0000000  1.0000000 )


     point group C_2v (mm2) 
     there are  4 classes
     the character table:

       E     C2    s_v   s_v' 
A_1    1.00  1.00  1.00  1.00
A_2    1.00  1.00 -1.00 -1.00
B_1    1.00 -1.00  1.00 -1.00
B_2    1.00 -1.00 -1.00  1.00

     the symmetry operations in each class and the name of the first element:

     E        1
          identity                                               
     C2       2
          180 deg rotation - cart. axis [0,0,1]                  
     s_v      4
          inv. 180 deg rotation - cart. axis [1,0,0]             
     s_v'     3
          inv. 180 deg rotation - cart. axis [0,1,0]             

   Cartesian axes

     site n.     atom                  positions (alat units)
         1        Y      tau(   1) = (   0.2500000   0.2500000   0.7770293  )
         2        Y      tau(   2) = (   0.2500000   0.7500000   0.7770293  )
         3        Y      tau(   3) = (   0.7500000   0.2500000   0.7770293  )
         4        Y      tau(   4) = (   0.7500000   0.7500000   0.7770293  )
         5        Ba     tau(   5) = (   0.2500000   0.2500000   0.2858380  )
         6        Ba     tau(   6) = (   0.2500000   0.2500000   1.2682207  )
         7        Ba     tau(   7) = (   0.2500000   0.7500000   0.2858380  )
         8        Ba     tau(   8) = (   0.2500000   0.7500000   1.2682207  )
         9        Ba     tau(   9) = (   0.7500000   0.2500000   0.2858380  )
        10        Ba     tau(  10) = (   0.7500000   0.2500000   1.2682207  )
        11        Ba     tau(  11) = (   0.7500000   0.7500000   0.2858380  )
        12        Ba     tau(  12) = (   0.7500000   0.7500000   1.2682207  )
        13        Cu     tau(  13) = (   0.0000000   0.0000000   0.0000000  )
        14        Cu1    tau(  14) = (   0.0000000   0.0000000   0.5517064  )
        15        Cu2    tau(  15) = (   0.0000000   0.0000000   1.0023523  )
        16        Cu     tau(  16) = (   0.0000000   0.5000000   0.0000000  )
        17        Cu2    tau(  17) = (   0.0000000   0.5000000   0.5517064  )
        18        Cu1    tau(  18) = (   0.0000000   0.5000000   1.0023523  )
        19        Cu     tau(  19) = (   0.5000000   0.0000000   0.0000000  )
        20        Cu2    tau(  20) = (   0.5000000   0.0000000   0.5517064  )
        21        Cu1    tau(  21) = (   0.5000000   0.0000000   1.0023523  )
        22        Cu     tau(  22) = (   0.5000000   0.5000000   0.0000000  )
        23        Cu1    tau(  23) = (   0.5000000   0.5000000   0.5517064  )
        24        Cu2    tau(  24) = (   0.5000000   0.5000000   1.0023523  )
        25        O      tau(  25) = (   0.0000000   0.0000000   0.2461629  )
        26        O      tau(  26) = (   0.0000000   0.0000000   1.3078958  )
        27        O      tau(  27) = (   0.5000000   0.0000000   0.2461629  )
        28        O      tau(  28) = (   0.5000000   0.0000000   1.3078958  )
        29        O      tau(  29) = (   0.0000000   0.5000000   0.2461629  )
        30        O      tau(  30) = (   0.0000000   0.5000000   1.3078958  )
        31        O      tau(  31) = (   0.5000000   0.5000000   0.2461629  )
        32        O      tau(  32) = (   0.5000000   0.5000000   1.3078958  )
        33        O      tau(  33) = (   0.2500000   0.0000000   0.5877295  )
        34        O      tau(  34) = (   0.2500000   0.0000000   0.9663292  )
        35        O      tau(  35) = (   0.2500000   0.5000000   0.5877295  )
        36        O      tau(  36) = (   0.2500000   0.5000000   0.9663292  )
        37        O      tau(  37) = (   0.7500000   0.0000000   0.5877295  )
        38        O      tau(  38) = (   0.7500000   0.0000000   0.9663292  )
        39        O      tau(  39) = (   0.7500000   0.5000000   0.5877295  )
        40        O      tau(  40) = (   0.7500000   0.5000000   0.9663292  )
        41        O      tau(  41) = (   0.0000000   0.2500000   0.5857713  )
        42        O      tau(  42) = (   0.0000000   0.2500000   0.9682874  )
        43        O      tau(  43) = (   0.5000000   0.2500000   0.5857713  )
        44        O      tau(  44) = (   0.5000000   0.2500000   0.9682874  )
        45        O      tau(  45) = (   0.0000000   0.7500000   0.5857713  )
        46        O      tau(  46) = (   0.0000000   0.7500000   0.9682874  )
        47        O      tau(  47) = (   0.5000000   0.7500000   0.5857713  )
        48        O      tau(  48) = (   0.5000000   0.7500000   0.9682874  )

   Crystallographic axes

     site n.     atom                  positions (cryst. coord.)
         1        Y      tau(   1) = (  0.2500000  0.2500000  0.5000000  )
         2        Y      tau(   2) = (  0.2500000  0.7500000  0.5000000  )
         3        Y      tau(   3) = (  0.7500000  0.2500000  0.5000000  )
         4        Y      tau(   4) = (  0.7500000  0.7500000  0.5000000  )
         5        Ba     tau(   5) = (  0.2500000  0.2500000  0.1839300  )
         6        Ba     tau(   6) = (  0.2500000  0.2500000  0.8160700  )
         7        Ba     tau(   7) = (  0.2500000  0.7500000  0.1839300  )
         8        Ba     tau(   8) = (  0.2500000  0.7500000  0.8160700  )
         9        Ba     tau(   9) = (  0.7500000  0.2500000  0.1839300  )
        10        Ba     tau(  10) = (  0.7500000  0.2500000  0.8160700  )
        11        Ba     tau(  11) = (  0.7500000  0.7500000  0.1839300  )
        12        Ba     tau(  12) = (  0.7500000  0.7500000  0.8160700  )
        13        Cu     tau(  13) = (  0.0000000  0.0000000  0.0000000  )
        14        Cu1    tau(  14) = (  0.0000000  0.0000000  0.3550100  )
        15        Cu2    tau(  15) = (  0.0000000  0.0000000  0.6449900  )
        16        Cu     tau(  16) = (  0.0000000  0.5000000  0.0000000  )
        17        Cu2    tau(  17) = (  0.0000000  0.5000000  0.3550100  )
        18        Cu1    tau(  18) = (  0.0000000  0.5000000  0.6449900  )
        19        Cu     tau(  19) = (  0.5000000  0.0000000  0.0000000  )
        20        Cu2    tau(  20) = (  0.5000000  0.0000000  0.3550100  )
        21        Cu1    tau(  21) = (  0.5000000  0.0000000  0.6449900  )
        22        Cu     tau(  22) = (  0.5000000  0.5000000  0.0000000  )
        23        Cu1    tau(  23) = (  0.5000000  0.5000000  0.3550100  )
        24        Cu2    tau(  24) = (  0.5000000  0.5000000  0.6449900  )
        25        O      tau(  25) = (  0.0000000  0.0000000  0.1584000  )
        26        O      tau(  26) = (  0.0000000  0.0000000  0.8416000  )
        27        O      tau(  27) = (  0.5000000  0.0000000  0.1584000  )
        28        O      tau(  28) = (  0.5000000  0.0000000  0.8416000  )
        29        O      tau(  29) = (  0.0000000  0.5000000  0.1584000  )
        30        O      tau(  30) = (  0.0000000  0.5000000  0.8416000  )
        31        O      tau(  31) = (  0.5000000  0.5000000  0.1584000  )
        32        O      tau(  32) = (  0.5000000  0.5000000  0.8416000  )
        33        O      tau(  33) = (  0.2500000  0.0000000  0.3781900  )
        34        O      tau(  34) = (  0.2500000  0.0000000  0.6218100  )
        35        O      tau(  35) = (  0.2500000  0.5000000  0.3781900  )
        36        O      tau(  36) = (  0.2500000  0.5000000  0.6218100  )
        37        O      tau(  37) = (  0.7500000  0.0000000  0.3781900  )
        38        O      tau(  38) = (  0.7500000  0.0000000  0.6218100  )
        39        O      tau(  39) = (  0.7500000  0.5000000  0.3781900  )
        40        O      tau(  40) = (  0.7500000  0.5000000  0.6218100  )
        41        O      tau(  41) = (  0.0000000  0.2500000  0.3769300  )
        42        O      tau(  42) = (  0.0000000  0.2500000  0.6230700  )
        43        O      tau(  43) = (  0.5000000  0.2500000  0.3769300  )
        44        O      tau(  44) = (  0.5000000  0.2500000  0.6230700  )
        45        O      tau(  45) = (  0.0000000  0.7500000  0.3769300  )
        46        O      tau(  46) = (  0.0000000  0.7500000  0.6230700  )
        47        O      tau(  47) = (  0.5000000  0.7500000  0.3769300  )
        48        O      tau(  48) = (  0.5000000  0.7500000  0.6230700  )

     number of k points=     1  Methfessel-Paxton smearing, width (Ry)=  0.0300
                       cart. coord. in units 2pi/alat
        k(    1) = (   0.0000000   0.0000000   0.0000000), wk =   2.0000000

                       cryst. coord.
        k(    1) = (   0.0000000   0.0000000   0.0000000), wk =   2.0000000

     Dense  grid:  1622363 G-vectors     FFT dimensions: ( 125, 125, 200)

     Smooth grid:   573639 G-vectors     FFT dimensions: (  90,  90, 144)

     Dynamical RAM for                 wfc:      81.52 MB

     Dynamical RAM for     wfc (w. buffer):      81.52 MB

     Dynamical RAM for             U proj.:      10.94 MB

     Dynamical RAM for  U proj. (w. buff.):      10.94 MB

     Dynamical RAM for           str. fact:      37.13 MB

     Dynamical RAM for           local pot:       0.00 MB

     Dynamical RAM for          nlocal pot:     218.85 MB

     Dynamical RAM for                qrad:      24.11 MB

     Dynamical RAM for          rho,v,vnew:      36.45 MB

     Dynamical RAM for               rhoin:      12.15 MB

     Dynamical RAM for            rho*nmix:      99.02 MB

     Dynamical RAM for           G-vectors:      24.30 MB

     Dynamical RAM for          h,s,v(r/c):       4.07 MB

     Dynamical RAM for          <psi|beta>:       3.64 MB

     Dynamical RAM for                 psi:     163.04 MB

     Dynamical RAM for                hpsi:     163.04 MB

     Dynamical RAM for                spsi:     163.04 MB

     Dynamical RAM for      wfcinit/wfcrot:     227.04 MB

     Dynamical RAM for           addusdens:    2327.05 MB

     Dynamical RAM for          addusforce:    2615.01 MB

     Estimated static dynamical RAM per process >     518.58 MB

     Estimated max dynamical RAM per process >       3.16 GB

     Estimated total dynamical RAM >      12.63 GB

     Initial potential from superposition of free atoms

     starting charge     483.8621, renormalised to     496.0000

     negative rho (up, down):  7.750E-01 0.000E+00

     HUBBARD ENERGY =    4.7039  (Ry)

     STARTING HUBBARD OCCUPATIONS:

     =================== HUBBARD OCCUPATIONS ===================
     ------------------------ ATOM   14 ------------------------
     Tr[ns( 14)] =   8.00000
     eigenvalues:
       0.800  0.800  0.800  0.800  0.800
     eigenvectors (columns):
       1.000  0.000  0.000  0.000  0.000
       0.000  1.000  0.000  0.000  0.000
       0.000  0.000  1.000  0.000  0.000
       0.000  0.000  0.000  1.000  0.000
       0.000  0.000  0.000  0.000  1.000
     occupation matrix ns (before diag.):
       0.800  0.000  0.000  0.000  0.000
       0.000  0.800  0.000  0.000  0.000
       0.000  0.000  0.800  0.000  0.000
       0.000  0.000  0.000  0.800  0.000
       0.000  0.000  0.000  0.000  0.800
     ------------------------ ATOM   15 ------------------------
     Tr[ns( 15)] =   8.00000
     eigenvalues:
       0.800  0.800  0.800  0.800  0.800
     eigenvectors (columns):
       1.000  0.000  0.000  0.000  0.000
       0.000  1.000  0.000  0.000  0.000
       0.000  0.000  1.000  0.000  0.000
       0.000  0.000  0.000  1.000  0.000
       0.000  0.000  0.000  0.000  1.000
     occupation matrix ns (before diag.):
       0.800  0.000  0.000  0.000  0.000
       0.000  0.800  0.000  0.000  0.000
       0.000  0.000  0.800  0.000  0.000
       0.000  0.000  0.000  0.800  0.000
       0.000  0.000  0.000  0.000  0.800
     ------------------------ ATOM   17 ------------------------
     Tr[ns( 17)] =   8.00000
     eigenvalues:
       0.800  0.800  0.800  0.800  0.800
     eigenvectors (columns):
       1.000  0.000  0.000  0.000  0.000
       0.000  1.000  0.000  0.000  0.000
       0.000  0.000  1.000  0.000  0.000
       0.000  0.000  0.000  1.000  0.000
       0.000  0.000  0.000  0.000  1.000
     occupation matrix ns (before diag.):
       0.800  0.000  0.000  0.000  0.000
       0.000  0.800  0.000  0.000  0.000
       0.000  0.000  0.800  0.000  0.000
       0.000  0.000  0.000  0.800  0.000
       0.000  0.000  0.000  0.000  0.800
     ------------------------ ATOM   18 ------------------------
     Tr[ns( 18)] =   8.00000
     eigenvalues:
       0.800  0.800  0.800  0.800  0.800
     eigenvectors (columns):
       1.000  0.000  0.000  0.000  0.000
       0.000  1.000  0.000  0.000  0.000
       0.000  0.000  1.000  0.000  0.000
       0.000  0.000  0.000  1.000  0.000
       0.000  0.000  0.000  0.000  1.000
     occupation matrix ns (before diag.):
       0.800  0.000  0.000  0.000  0.000
       0.000  0.800  0.000  0.000  0.000
       0.000  0.000  0.800  0.000  0.000
       0.000  0.000  0.000  0.800  0.000
       0.000  0.000  0.000  0.000  0.800
     ------------------------ ATOM   20 ------------------------
     Tr[ns( 20)] =   8.00000
     eigenvalues:
       0.800  0.800  0.800  0.800  0.800
     eigenvectors (columns):
       1.000  0.000  0.000  0.000  0.000
       0.000  1.000  0.000  0.000  0.000
       0.000  0.000  1.000  0.000  0.000
       0.000  0.000  0.000  1.000  0.000
       0.000  0.000  0.000  0.000  1.000
     occupation matrix ns (before diag.):
       0.800  0.000  0.000  0.000  0.000
       0.000  0.800  0.000  0.000  0.000
       0.000  0.000  0.800  0.000  0.000
       0.000  0.000  0.000  0.800  0.000
       0.000  0.000  0.000  0.000  0.800
     ------------------------ ATOM   21 ------------------------
     Tr[ns( 21)] =   8.00000
     eigenvalues:
       0.800  0.800  0.800  0.800  0.800
     eigenvectors (columns):
       1.000  0.000  0.000  0.000  0.000
       0.000  1.000  0.000  0.000  0.000
       0.000  0.000  1.000  0.000  0.000
       0.000  0.000  0.000  1.000  0.000
       0.000  0.000  0.000  0.000  1.000
     occupation matrix ns (before diag.):
       0.800  0.000  0.000  0.000  0.000
       0.000  0.800  0.000  0.000  0.000
       0.000  0.000  0.800  0.000  0.000
       0.000  0.000  0.000  0.800  0.000
       0.000  0.000  0.000  0.000  0.800
     ------------------------ ATOM   23 ------------------------
     Tr[ns( 23)] =   8.00000
     eigenvalues:
       0.800  0.800  0.800  0.800  0.800
     eigenvectors (columns):
       1.000  0.000  0.000  0.000  0.000
       0.000  1.000  0.000  0.000  0.000
       0.000  0.000  1.000  0.000  0.000
       0.000  0.000  0.000  1.000  0.000
       0.000  0.000  0.000  0.000  1.000
     occupation matrix ns (before diag.):
       0.800  0.000  0.000  0.000  0.000
       0.000  0.800  0.000  0.000  0.000
       0.000  0.000  0.800  0.000  0.000
       0.000  0.000  0.000  0.800  0.000
       0.000  0.000  0.000  0.000  0.800
     ------------------------ ATOM   24 ------------------------
     Tr[ns( 24)] =   8.00000
     eigenvalues:
       0.800  0.800  0.800  0.800  0.800
     eigenvectors (columns):
       1.000  0.000  0.000  0.000  0.000
       0.000  1.000  0.000  0.000  0.000
       0.000  0.000  1.000  0.000  0.000
       0.000  0.000  0.000  1.000  0.000
       0.000  0.000  0.000  0.000  1.000
     occupation matrix ns (before diag.):
       0.800  0.000  0.000  0.000  0.000
       0.000  0.800  0.000  0.000  0.000
       0.000  0.000  0.800  0.000  0.000
       0.000  0.000  0.000  0.800  0.000
       0.000  0.000  0.000  0.000  0.800

     Number of occupied Hubbard levels =   64.0000

     Atomic wfc used for Hubbard projectors are orthogonalized

     Starting wfcs are  408 randomized atomic wfcs

     total cpu time spent up to now is       16.4 secs

     Self-consistent Calculation

     iteration #  1     ecut=    90.00 Ry     beta= 0.10
     Davidson diagonalization with overlap

---- Real-time Memory Report at c_bands before calling an iterative solver
          2537 MiB given to the printing process from OS
             0 MiB allocation reported by mallinfo(arena+hblkhd)
         12293 MiB available memory on the node where the printing process lives
------------------
     ethr =  1.00E-02,  avg # of iterations =  2.0

     =================== HUBBARD OCCUPATIONS ===================
     ------------------------ ATOM   14 ------------------------
     Tr[ns( 14)] =   9.36477
     eigenvalues:
       0.753  0.959  0.988  0.988  0.995
     eigenvectors (columns):
       0.005  1.000 -0.000 -0.000  0.000
      -0.000  0.000  1.000 -0.000  0.000
      -0.000  0.000  0.000  1.000  0.000
       1.000 -0.005  0.000  0.000 -0.000
       0.000 -0.000 -0.000 -0.000  1.000
     occupation matrix ns (before diag.):
       0.959 -0.000 -0.000 -0.001  0.000
      -0.000  0.988 -0.000  0.000  0.000
      -0.000 -0.000  0.988  0.000  0.000
      -0.001  0.000  0.000  0.753 -0.000
       0.000  0.000  0.000 -0.000  0.995
     ------------------------ ATOM   15 ------------------------
     Tr[ns( 15)] =   9.36442
     eigenvalues:
       0.753  0.959  0.988  0.988  0.995
     eigenvectors (columns):
       0.005  1.000 -0.000 -0.000  0.000
      -0.000  0.000  1.000 -0.000  0.000
      -0.000  0.000  0.000  1.000  0.000
       1.000 -0.005  0.000  0.000 -0.000
       0.000 -0.000 -0.000 -0.000  1.000
     occupation matrix ns (before diag.):
       0.959 -0.000 -0.000 -0.001  0.000
      -0.000  0.988 -0.000  0.000  0.000
      -0.000 -0.000  0.988  0.000  0.000
      -0.001  0.000  0.000  0.753 -0.000
       0.000  0.000  0.000 -0.000  0.995
     ------------------------ ATOM   17 ------------------------
     Tr[ns( 17)] =   9.36466
     eigenvalues:
       0.753  0.959  0.988  0.988  0.995
     eigenvectors (columns):
       0.005  1.000 -0.000 -0.000  0.000
      -0.000  0.000  1.000 -0.000  0.000
      -0.000  0.000  0.000  1.000  0.000
       1.000 -0.005  0.000  0.000 -0.000
       0.000 -0.000 -0.000 -0.000  1.000
     occupation matrix ns (before diag.):
       0.959 -0.000 -0.000 -0.001  0.000
      -0.000  0.988 -0.000  0.000  0.000
      -0.000 -0.000  0.988  0.000  0.000
      -0.001  0.000  0.000  0.753 -0.000
       0.000  0.000  0.000 -0.000  0.995
     ------------------------ ATOM   18 ------------------------
     Tr[ns( 18)] =   9.36412
     eigenvalues:
       0.753  0.959  0.988  0.988  0.995
     eigenvectors (columns):
       0.005  1.000 -0.000 -0.000  0.000
      -0.000  0.000  1.000 -0.000  0.000
      -0.000  0.000  0.000  1.000  0.000
       1.000 -0.005  0.000  0.000 -0.000
       0.000 -0.000 -0.000 -0.000  1.000
     occupation matrix ns (before diag.):
       0.959 -0.000 -0.000 -0.001  0.000
      -0.000  0.988 -0.000  0.000  0.000
      -0.000 -0.000  0.988  0.000  0.000
      -0.001  0.000  0.000  0.753 -0.000
       0.000  0.000  0.000 -0.000  0.995
     ------------------------ ATOM   20 ------------------------
     Tr[ns( 20)] =   9.36493
     eigenvalues:
       0.753  0.959  0.988  0.988  0.995
     eigenvectors (columns):
       0.005  1.000 -0.000 -0.000  0.000
      -0.000  0.000  1.000 -0.000  0.000
      -0.000  0.000  0.000  1.000  0.000
       1.000 -0.005  0.000  0.000 -0.000
       0.000 -0.000 -0.000 -0.000  1.000
     occupation matrix ns (before diag.):
       0.959 -0.000 -0.000 -0.001  0.000
      -0.000  0.988 -0.000  0.000  0.000
      -0.000 -0.000  0.988  0.000  0.000
      -0.001  0.000  0.000  0.753 -0.000
       0.000  0.000  0.000 -0.000  0.995
     ------------------------ ATOM   21 ------------------------
     Tr[ns( 21)] =   9.36454
     eigenvalues:
       0.753  0.959  0.988  0.988  0.995
     eigenvectors (columns):
       0.005  1.000 -0.000 -0.000  0.000
      -0.000  0.000  1.000 -0.000  0.000
      -0.000  0.000  0.000  1.000  0.000
       1.000 -0.005  0.000  0.000 -0.000
       0.000 -0.000 -0.000 -0.000  1.000
     occupation matrix ns (before diag.):
       0.959 -0.000 -0.000 -0.001  0.000
      -0.000  0.988 -0.000  0.000  0.000
      -0.000 -0.000  0.988  0.000  0.000
      -0.001  0.000  0.000  0.753 -0.000
       0.000  0.000  0.000 -0.000  0.995
     ------------------------ ATOM   23 ------------------------
     Tr[ns( 23)] =   9.36462
     eigenvalues:
       0.753  0.959  0.988  0.988  0.995
     eigenvectors (columns):
       0.005  1.000 -0.000 -0.000  0.000
      -0.000  0.000  1.000 -0.000  0.000
      -0.000  0.000  0.000  1.000  0.000
       1.000 -0.005  0.000  0.000 -0.000
       0.000 -0.000 -0.000 -0.000  1.000
     occupation matrix ns (before diag.):
       0.959 -0.000 -0.000 -0.001  0.000
      -0.000  0.988 -0.000  0.000  0.000
      -0.000 -0.000  0.988  0.000  0.000
      -0.001  0.000  0.000  0.753 -0.000
       0.000  0.000  0.000 -0.000  0.995
     ------------------------ ATOM   24 ------------------------
     Tr[ns( 24)] =   9.36415
     eigenvalues:
       0.753  0.959  0.988  0.988  0.995
     eigenvectors (columns):
       0.005  1.000 -0.000 -0.000  0.000
      -0.000  0.000  1.000 -0.000  0.000
      -0.000  0.000  0.000  1.000  0.000
       1.000 -0.005  0.000  0.000 -0.000
       0.000 -0.000 -0.000 -0.000  1.000
     occupation matrix ns (before diag.):
       0.959 -0.000 -0.000 -0.001  0.000
      -0.000  0.988 -0.000  0.000  0.000
      -0.000 -0.000  0.988  0.000  0.000
      -0.001  0.000  0.000  0.753 -0.000
       0.000  0.000  0.000 -0.000  0.995

     Number of occupied Hubbard levels =   74.9162

     negative rho (up, down):  7.664E-01 0.000E+00

     HUBBARD ENERGY =    1.4968  (Ry)

     total cpu time spent up to now is       48.2 secs

     total energy              =   -6556.15353805 Ry
     estimated scf accuracy    <       5.87516915 Ry

     iteration #  2     ecut=    90.00 Ry     beta= 0.10
     Davidson diagonalization with overlap

---- Real-time Memory Report at c_bands before calling an iterative solver
          2965 MiB given to the printing process from OS
             0 MiB allocation reported by mallinfo(arena+hblkhd)
         12017 MiB available memory on the node where the printing process lives
------------------
     ethr =  1.18E-03,  avg # of iterations =  2.0

     =================== HUBBARD OCCUPATIONS ===================
     ------------------------ ATOM   14 ------------------------
     Tr[ns( 14)] =   9.35483
     eigenvalues:
       0.747  0.972  0.985  0.985  0.989
     eigenvectors (columns):
       0.006  1.000 -0.000 -0.000  0.000
      -0.000  0.000  1.000 -0.000  0.000
      -0.000  0.000  0.000  1.000  0.000
       1.000 -0.006  0.000  0.000 -0.000
       0.000 -0.000 -0.000 -0.000  1.000
     occupation matrix ns (before diag.):
       0.972 -0.000 -0.000 -0.001  0.000
      -0.000  0.985 -0.000  0.000  0.000
      -0.000 -0.000  0.985  0.000  0.000
      -0.001  0.000  0.000  0.747 -0.000
       0.000  0.000  0.000 -0.000  0.989
     ------------------------ ATOM   15 ------------------------
     Tr[ns( 15)] =   9.35748
     eigenvalues:
       0.748  0.972  0.985  0.985  0.989
     eigenvectors (columns):
       0.006  1.000 -0.000 -0.000  0.000
      -0.000  0.000  1.000 -0.000  0.000
      -0.000  0.000  0.000  1.000  0.000
       1.000 -0.006  0.000  0.000 -0.000
       0.000 -0.000 -0.000 -0.000  1.000
     occupation matrix ns (before diag.):
       0.972 -0.000 -0.000 -0.001  0.000
      -0.000  0.985 -0.000  0.000  0.000
      -0.000 -0.000  0.985  0.000  0.000
      -0.001  0.000  0.000  0.748 -0.000
       0.000  0.000  0.000 -0.000  0.989
     ------------------------ ATOM   17 ------------------------
     Tr[ns( 17)] =   9.35581
     eigenvalues:
       0.747  0.972  0.985  0.985  0.989
     eigenvectors (columns):
       0.006  1.000 -0.000 -0.000  0.000
      -0.000  0.000  1.000 -0.000  0.000
      -0.000  0.000  0.000  1.000  0.000
       1.000 -0.006  0.000  0.000 -0.000
       0.000 -0.000 -0.000 -0.000  1.000
     occupation matrix ns (before diag.):
       0.972 -0.000 -0.000 -0.001  0.000
      -0.000  0.985 -0.000  0.000  0.000
      -0.000 -0.000  0.985  0.000  0.000
      -0.001  0.000  0.000  0.747 -0.000
       0.000  0.000  0.000 -0.000  0.989
     ------------------------ ATOM   18 ------------------------
     Tr[ns( 18)] =   9.35747
     eigenvalues:
       0.748  0.972  0.985  0.985  0.989
     eigenvectors (columns):
       0.006  1.000 -0.000 -0.000  0.000
      -0.000  0.000  1.000 -0.000  0.000
      -0.000  0.000  0.000  1.000  0.000
       1.000 -0.006  0.000  0.000 -0.000
       0.000 -0.000 -0.000 -0.000  1.000
     occupation matrix ns (before diag.):
       0.972 -0.000 -0.000 -0.001  0.000
      -0.000  0.985 -0.000  0.000  0.000
      -0.000 -0.000  0.985  0.000  0.000
      -0.001  0.000  0.000  0.748 -0.000
       0.000  0.000  0.000 -0.000  0.989
     ------------------------ ATOM   20 ------------------------
     Tr[ns( 20)] =   9.35577
     eigenvalues:
       0.747  0.972  0.985  0.985  0.989
     eigenvectors (columns):
       0.005  1.000 -0.000 -0.000  0.000
      -0.000  0.000  1.000 -0.000  0.000
      -0.000  0.000  0.000  1.000  0.000
       1.000 -0.005  0.000  0.000 -0.000
       0.000 -0.000 -0.000 -0.000  1.000
     occupation matrix ns (before diag.):
       0.972 -0.000 -0.000 -0.001  0.000
      -0.000  0.985 -0.000  0.000  0.000
      -0.000 -0.000  0.985  0.000  0.000
      -0.001  0.000  0.000  0.747 -0.000
       0.000  0.000  0.000 -0.000  0.989
     ------------------------ ATOM   21 ------------------------
     Tr[ns( 21)] =   9.35614
     eigenvalues:
       0.747  0.972  0.985  0.985  0.989
     eigenvectors (columns):
       0.006  1.000 -0.000 -0.000  0.000
      -0.000  0.000  0.000  1.000  0.000
      -0.000  0.000  1.000 -0.000  0.000
       1.000 -0.006  0.000  0.000 -0.000
       0.000 -0.000 -0.000 -0.000  1.000
     occupation matrix ns (before diag.):
       0.972 -0.000 -0.000 -0.001  0.000
      -0.000  0.985 -0.000  0.000  0.000
      -0.000 -0.000  0.985  0.000  0.000
      -0.001  0.000  0.000  0.747 -0.000
       0.000  0.000  0.000 -0.000  0.989
     ------------------------ ATOM   23 ------------------------
     Tr[ns( 23)] =   9.35410
     eigenvalues:
       0.746  0.972  0.985  0.985  0.989
     eigenvectors (columns):
       0.005  1.000 -0.000 -0.000  0.000
      -0.000  0.000  1.000 -0.000  0.000
      -0.000  0.000  0.000  1.000  0.000
       1.000 -0.005  0.000  0.000 -0.000
       0.000 -0.000 -0.000 -0.000  1.000
     occupation matrix ns (before diag.):
       0.972 -0.000 -0.000 -0.001  0.000
      -0.000  0.985 -0.000  0.000  0.000
      -0.000 -0.000  0.985  0.000  0.000
      -0.001  0.000  0.000  0.746 -0.000
       0.000  0.000  0.000 -0.000  0.989
     ------------------------ ATOM   24 ------------------------
     Tr[ns( 24)] =   9.35725
     eigenvalues:
       0.748  0.972  0.985  0.985  0.989
     eigenvectors (columns):
       0.006  1.000 -0.000 -0.000  0.000
      -0.000  0.000  1.000 -0.000  0.000
      -0.000  0.000  0.000  1.000  0.000
       1.000 -0.006  0.000  0.000 -0.000
       0.000 -0.000 -0.000 -0.000  1.000
     occupation matrix ns (before diag.):
       0.972 -0.000 -0.000 -0.001  0.000
      -0.000  0.985 -0.000  0.000  0.000
      -0.000 -0.000  0.985  0.000  0.000
      -0.001  0.000  0.000  0.748 -0.000
       0.000  0.000  0.000 -0.000  0.989

     Number of occupied Hubbard levels =   74.8488

     negative rho (up, down):  7.455E-01 0.000E+00

     HUBBARD ENERGY =    1.5002  (Ry)

     total cpu time spent up to now is       79.0 secs

     total energy              =   -6555.27432390 Ry
     estimated scf accuracy    <       3.38861905 Ry

     iteration #  3     ecut=    90.00 Ry     beta= 0.10
     Davidson diagonalization with overlap

---- Real-time Memory Report at c_bands before calling an iterative solver
          2976 MiB given to the printing process from OS
             0 MiB allocation reported by mallinfo(arena+hblkhd)
         11991 MiB available memory on the node where the printing process lives
------------------
     ethr =  6.83E-04,  avg # of iterations =  2.0

     =================== HUBBARD OCCUPATIONS ===================
     ------------------------ ATOM   14 ------------------------
     Tr[ns( 14)] =   9.58892
     eigenvalues:
       0.859  0.973  0.986  0.986  0.989
     eigenvectors (columns):
       0.010  1.000 -0.000 -0.000  0.000
      -0.000  0.000  1.000 -0.000  0.000
      -0.000  0.000  0.000  1.000  0.000
       1.000 -0.010  0.000  0.000 -0.000
       0.000 -0.000 -0.000 -0.000  1.000
     occupation matrix ns (before diag.):
       0.973 -0.000 -0.000 -0.001  0.000
      -0.000  0.986 -0.000  0.000  0.000
      -0.000 -0.000  0.986  0.000  0.000
      -0.001  0.000  0.000  0.859 -0.000
       0.000  0.000  0.000 -0.000  0.989
     ------------------------ ATOM   15 ------------------------
     Tr[ns( 15)] =   9.58199
     eigenvalues:
       0.856  0.973  0.986  0.986  0.989
     eigenvectors (columns):
       0.010  1.000 -0.000 -0.000  0.000
      -0.000  0.000  1.000 -0.000  0.000
      -0.000  0.000  0.000  1.000  0.000
       1.000 -0.010  0.000  0.000 -0.000
       0.000 -0.000 -0.000 -0.000  1.000
     occupation matrix ns (before diag.):
       0.973 -0.000 -0.000 -0.001  0.000
      -0.000  0.986 -0.000  0.000  0.000
      -0.000 -0.000  0.986  0.000  0.000
      -0.001  0.000  0.000  0.856 -0.000
       0.000  0.000  0.000 -0.000  0.989
     ------------------------ ATOM   17 ------------------------
     Tr[ns( 17)] =   9.58727
     eigenvalues:
       0.858  0.973  0.986  0.986  0.989
     eigenvectors (columns):
       0.010  1.000 -0.000 -0.000  0.000
      -0.000  0.000  1.000 -0.000  0.000
      -0.000  0.000  0.000  1.000  0.000
       1.000 -0.010  0.000  0.000 -0.000
       0.000 -0.000 -0.000 -0.000  1.000
     occupation matrix ns (before diag.):
       0.973 -0.000 -0.000 -0.001  0.000
      -0.000  0.986 -0.000  0.000  0.000
      -0.000 -0.000  0.986  0.000  0.000
      -0.001  0.000  0.000  0.858 -0.000
       0.000  0.000  0.000 -0.000  0.989
     ------------------------ ATOM   18 ------------------------
     Tr[ns( 18)] =   9.58235
     eigenvalues:
       0.856  0.973  0.986  0.986  0.989
     eigenvectors (columns):
       0.010  1.000 -0.000 -0.000  0.000
      -0.000  0.000  1.000 -0.000  0.000
      -0.000  0.000  0.000  1.000  0.000
       1.000 -0.010  0.000  0.000 -0.000
       0.000 -0.000 -0.000 -0.000  1.000
     occupation matrix ns (before diag.):
       0.973 -0.000 -0.000 -0.001  0.000
      -0.000  0.986 -0.000  0.000  0.000
      -0.000 -0.000  0.986  0.000  0.000
      -0.001  0.000  0.000  0.856 -0.000
       0.000  0.000  0.000 -0.000  0.989
     ------------------------ ATOM   20 ------------------------
     Tr[ns( 20)] =   9.58727
     eigenvalues:
       0.858  0.973  0.986  0.986  0.989
     eigenvectors (columns):
       0.010  1.000 -0.000 -0.000  0.000
      -0.000  0.000  1.000 -0.000  0.000
      -0.000  0.000  0.000  1.000  0.000
       1.000 -0.010  0.000  0.000 -0.000
       0.000 -0.000 -0.000 -0.000  1.000
     occupation matrix ns (before diag.):
       0.973 -0.000 -0.000 -0.001  0.000
      -0.000  0.986 -0.000  0.000  0.000
      -0.000 -0.000  0.986  0.000  0.000
      -0.001  0.000  0.000  0.858 -0.000
       0.000  0.000  0.000 -0.000  0.989
     ------------------------ ATOM   21 ------------------------
     Tr[ns( 21)] =   9.58346
     eigenvalues:
       0.856  0.973  0.986  0.986  0.989
     eigenvectors (columns):
       0.010  1.000 -0.000 -0.000  0.000
      -0.000  0.000  1.000 -0.000  0.000
      -0.000  0.000  0.000  1.000  0.000
       1.000 -0.010  0.000  0.000 -0.000
       0.000 -0.000 -0.000 -0.000  1.000
     occupation matrix ns (before diag.):
       0.973 -0.000 -0.000 -0.001  0.000
      -0.000  0.986 -0.000  0.000  0.000
      -0.000 -0.000  0.986  0.000  0.000
      -0.001  0.000  0.000  0.856 -0.000
       0.000  0.000  0.000 -0.000  0.989
     ------------------------ ATOM   23 ------------------------
     Tr[ns( 23)] =   9.58938
     eigenvalues:
       0.859  0.973  0.986  0.986  0.989
     eigenvectors (columns):
       0.010  1.000 -0.000 -0.000  0.000
      -0.000  0.000  1.000 -0.000  0.000
      -0.000  0.000  0.000  1.000  0.000
       1.000 -0.010  0.000  0.000 -0.000
       0.000 -0.000 -0.000 -0.000  1.000
     occupation matrix ns (before diag.):
       0.973 -0.000 -0.000 -0.001  0.000
      -0.000  0.986 -0.000  0.000  0.000
      -0.000 -0.000  0.986  0.000  0.000
      -0.001  0.000  0.000  0.859 -0.000
       0.000  0.000  0.000 -0.000  0.989
     ------------------------ ATOM   24 ------------------------
     Tr[ns( 24)] =   9.58235
     eigenvalues:
       0.856  0.973  0.986  0.986  0.989
     eigenvectors (columns):
       0.010  1.000 -0.000 -0.000  0.000
      -0.000  0.000  1.000 -0.000  0.000
      -0.000  0.000  0.000  1.000  0.000
       1.000 -0.010  0.000  0.000 -0.000
       0.000 -0.000 -0.000 -0.000  1.000
     occupation matrix ns (before diag.):
       0.973 -0.000 -0.000 -0.001  0.000
      -0.000  0.986 -0.000  0.000  0.000
      -0.000 -0.000  0.986  0.000  0.000
      -0.001  0.000  0.000  0.856 -0.000
       0.000  0.000  0.000 -0.000  0.989

     Number of occupied Hubbard levels =   76.6830

     negative rho (up, down):  7.418E-01 0.000E+00

     HUBBARD ENERGY =    1.4779  (Ry)

     total cpu time spent up to now is      110.8 secs

     total energy              =   -6555.57742162 Ry
     estimated scf accuracy    <       1.36620245 Ry

     iteration #  4     ecut=    90.00 Ry     beta= 0.10
     Davidson diagonalization with overlap

---- Real-time Memory Report at c_bands before calling an iterative solver
          2982 MiB given to the printing process from OS
             0 MiB allocation reported by mallinfo(arena+hblkhd)
         11972 MiB available memory on the node where the printing process lives
------------------
     ethr =  2.75E-04,  avg # of iterations =  2.0

     =================== HUBBARD OCCUPATIONS ===================
     ------------------------ ATOM   14 ------------------------
     Tr[ns( 14)] =   9.46286
     eigenvalues:
       0.801  0.970  0.985  0.986  0.989
     eigenvectors (columns):
       0.006  1.000 -0.000 -0.000  0.000
      -0.000  0.000  1.000 -0.000  0.000
      -0.000  0.000  0.000  1.000  0.000
       1.000 -0.006  0.000  0.000 -0.000
       0.000 -0.000 -0.000 -0.000  1.000
     occupation matrix ns (before diag.):
       0.970 -0.000 -0.000 -0.001  0.000
      -0.000  0.985 -0.000  0.000  0.000
      -0.000 -0.000  0.986  0.000  0.000
      -0.001  0.000  0.000  0.801 -0.000
       0.000  0.000  0.000 -0.000  0.989
     ------------------------ ATOM   15 ------------------------
     Tr[ns( 15)] =   9.46656
     eigenvalues:
       0.803  0.970  0.985  0.986  0.989
     eigenvectors (columns):
       0.006  1.000 -0.000 -0.000  0.000
      -0.000  0.000  1.000 -0.000  0.000
      -0.000  0.000  0.000  1.000  0.000
       1.000 -0.006  0.000  0.000 -0.000
       0.000 -0.000 -0.000 -0.000  1.000
     occupation matrix ns (before diag.):
       0.970 -0.000 -0.000 -0.001  0.000
      -0.000  0.985 -0.000  0.000  0.000
      -0.000 -0.000  0.986  0.000  0.000
      -0.001  0.000  0.000  0.803 -0.000
       0.000  0.000  0.000 -0.000  0.989
     ------------------------ ATOM   17 ------------------------
     Tr[ns( 17)] =   9.46199
     eigenvalues:
       0.801  0.970  0.985  0.986  0.989
     eigenvectors (columns):
       0.006  1.000 -0.000 -0.000  0.000
      -0.000  0.000  1.000 -0.000  0.000
      -0.000  0.000  0.000  1.000  0.000
       1.000 -0.006  0.000  0.000 -0.000
       0.000 -0.000 -0.000 -0.000  1.000
     occupation matrix ns (before diag.):
       0.970 -0.000 -0.000 -0.001  0.000
      -0.000  0.985 -0.000  0.000  0.000
      -0.000 -0.000  0.986  0.000  0.000
      -0.001  0.000  0.000  0.801 -0.000
       0.000  0.000  0.000 -0.000  0.989
     ------------------------ ATOM   18 ------------------------
     Tr[ns( 18)] =   9.46661
     eigenvalues:
       0.803  0.970  0.985  0.986  0.989
     eigenvectors (columns):
       0.006  1.000 -0.000 -0.000  0.000
      -0.000  0.000  1.000 -0.000  0.000
      -0.000  0.000  0.000  1.000  0.000
       1.000 -0.006  0.000  0.000 -0.000
       0.000 -0.000 -0.000 -0.000  1.000
     occupation matrix ns (before diag.):
       0.970 -0.000 -0.000 -0.001  0.000
      -0.000  0.985 -0.000  0.000  0.000
      -0.000 -0.000  0.986  0.000  0.000
      -0.001  0.000  0.000  0.803 -0.000
       0.000  0.000  0.000 -0.000  0.989
     ------------------------ ATOM   20 ------------------------
     Tr[ns( 20)] =   9.46174
     eigenvalues:
       0.800  0.970  0.985  0.986  0.989
     eigenvectors (columns):
       0.006  1.000 -0.000 -0.000  0.000
      -0.000  0.000  1.000 -0.000  0.000
      -0.000  0.000  0.000  1.000  0.000
       1.000 -0.006  0.000  0.000 -0.000
       0.000 -0.000 -0.000 -0.000  1.000
     occupation matrix ns (before diag.):
       0.970 -0.000 -0.000 -0.001  0.000
      -0.000  0.985 -0.000  0.000  0.000
      -0.000 -0.000  0.986  0.000  0.000
      -0.001  0.000  0.000  0.801 -0.000
       0.000  0.000  0.000 -0.000  0.989
     ------------------------ ATOM   21 ------------------------
     Tr[ns( 21)] =   9.46725
     eigenvalues:
       0.803  0.971  0.985  0.986  0.989
     eigenvectors (columns):
       0.006  1.000 -0.000 -0.000  0.000
      -0.000  0.000  1.000 -0.000  0.000
      -0.000  0.000  0.000  1.000  0.000
       1.000 -0.006  0.000  0.000 -0.000
       0.000 -0.000 -0.000 -0.000  1.000
     occupation matrix ns (before diag.):
       0.971 -0.000 -0.000 -0.001  0.000
      -0.000  0.985 -0.000  0.000  0.000
      -0.000 -0.000  0.986  0.000  0.000
      -0.001  0.000  0.000  0.803 -0.000
       0.000  0.000  0.000 -0.000  0.989
     ------------------------ ATOM   23 ------------------------
     Tr[ns( 23)] =   9.46299
     eigenvalues:
       0.801  0.970  0.985  0.986  0.989
     eigenvectors (columns):
       0.006  1.000 -0.000 -0.000  0.000
      -0.000  0.000  1.000 -0.000  0.000
      -0.000  0.000  0.000  1.000  0.000
       1.000 -0.006  0.000  0.000 -0.000
       0.000 -0.000 -0.000 -0.000  1.000
     occupation matrix ns (before diag.):
       0.970 -0.000 -0.000 -0.001  0.000
      -0.000  0.985 -0.000  0.000  0.000
      -0.000 -0.000  0.986  0.000  0.000
      -0.001  0.000  0.000  0.801 -0.000
       0.000  0.000  0.000 -0.000  0.989
     ------------------------ ATOM   24 ------------------------
     Tr[ns( 24)] =   9.46675
     eigenvalues:
       0.803  0.970  0.985  0.986  0.989
     eigenvectors (columns):
       0.006  1.000 -0.000 -0.000  0.000
      -0.000  0.000  1.000 -0.000  0.000
      -0.000  0.000  0.000  1.000  0.000
       1.000 -0.006  0.000  0.000 -0.000
       0.000 -0.000 -0.000 -0.000  1.000
     occupation matrix ns (before diag.):
       0.970 -0.000 -0.000 -0.001  0.000
      -0.000  0.985 -0.000  0.000  0.000
      -0.000 -0.000  0.986  0.000  0.000
      -0.001  0.000  0.000  0.803 -0.000
       0.000  0.000  0.000 -0.000  0.989

     Number of occupied Hubbard levels =   75.7168

     negative rho (up, down):  7.344E-01 0.000E+00

     HUBBARD ENERGY =    1.4626  (Ry)

     total cpu time spent up to now is      141.3 secs

     total energy              =   -6555.53960841 Ry
     estimated scf accuracy    <       0.66422828 Ry

     iteration #  5     ecut=    90.00 Ry     beta= 0.10
     Davidson diagonalization with overlap

---- Real-time Memory Report at c_bands before calling an iterative solver
          2989 MiB given to the printing process from OS
             0 MiB allocation reported by mallinfo(arena+hblkhd)
         11948 MiB available memory on the node where the printing process lives
------------------
     c_bands:  3 eigenvalues not converged
     ethr =  1.34E-04,  avg # of iterations = 20.0

     =================== HUBBARD OCCUPATIONS ===================
     ------------------------ ATOM   14 ------------------------
     Tr[ns( 14)] =   9.48629
     eigenvalues:
       0.815  0.970  0.985  0.985  0.988
     eigenvectors (columns):
       0.007  1.000 -0.000 -0.000  0.000
      -0.000  0.000  1.000 -0.000  0.000
      -0.000  0.000  0.000  1.000  0.000
       1.000 -0.007  0.000  0.000 -0.000
       0.000 -0.000 -0.000 -0.000  1.000
     occupation matrix ns (before diag.):
       0.970 -0.000 -0.000 -0.001  0.000
      -0.000  0.985 -0.000  0.000  0.000
      -0.000 -0.000  0.985  0.000  0.000
      -0.001  0.000  0.000  0.815 -0.000
       0.000  0.000  0.000 -0.000  0.988
     ------------------------ ATOM   15 ------------------------
     Tr[ns( 15)] =   9.47762
     eigenvalues:
       0.811  0.970  0.985  0.985  0.988
     eigenvectors (columns):
       0.007  1.000 -0.000 -0.000  0.000
      -0.000  0.000  1.000 -0.000  0.000
      -0.000  0.000  0.000  1.000  0.000
       1.000 -0.007  0.000  0.000 -0.000
       0.000 -0.000 -0.000 -0.000  1.000
     occupation matrix ns (before diag.):
       0.970 -0.000 -0.000 -0.001  0.000
      -0.000  0.985 -0.000  0.000  0.000
      -0.000 -0.000  0.985  0.000  0.000
      -0.001  0.000  0.000  0.811 -0.000
       0.000  0.000  0.000 -0.000  0.988
     ------------------------ ATOM   17 ------------------------
     Tr[ns( 17)] =   9.48654
     eigenvalues:
       0.815  0.970  0.985  0.985  0.988
     eigenvectors (columns):
       0.007  1.000 -0.000 -0.000  0.000
      -0.000  0.000  1.000 -0.000  0.000
      -0.000  0.000  0.000  1.000  0.000
       1.000 -0.007  0.000  0.000 -0.000
       0.000 -0.000 -0.000 -0.000  1.000
     occupation matrix ns (before diag.):
       0.970 -0.000 -0.000 -0.001  0.000
      -0.000  0.985 -0.000  0.000  0.000
      -0.000 -0.000  0.985  0.000  0.000
      -0.001  0.000  0.000  0.815 -0.000
       0.000  0.000  0.000 -0.000  0.988
     ------------------------ ATOM   18 ------------------------
     Tr[ns( 18)] =   9.47738
     eigenvalues:
       0.810  0.970  0.985  0.985  0.988
     eigenvectors (columns):
       0.007  1.000 -0.000 -0.000  0.000
      -0.000  0.000  1.000 -0.000  0.000
      -0.000  0.000  0.000  1.000  0.000
       1.000 -0.007  0.000  0.000 -0.000
       0.000 -0.000 -0.000 -0.000  1.000
     occupation matrix ns (before diag.):
       0.970 -0.000 -0.000 -0.001  0.000
      -0.000  0.985 -0.000  0.000  0.000
      -0.000 -0.000  0.985  0.000  0.000
      -0.001  0.000  0.000  0.810 -0.000
       0.000  0.000  0.000 -0.000  0.988
     ------------------------ ATOM   20 ------------------------
     Tr[ns( 20)] =   9.48661
     eigenvalues:
       0.815  0.970  0.985  0.985  0.988
     eigenvectors (columns):
       0.007  1.000 -0.000 -0.000  0.000
      -0.000  0.000  1.000 -0.000  0.000
      -0.000  0.000  0.000  1.000  0.000
       1.000 -0.007  0.000  0.000 -0.000
       0.000 -0.000 -0.000 -0.000  1.000
     occupation matrix ns (before diag.):
       0.970 -0.000 -0.000 -0.001  0.000
      -0.000  0.985 -0.000  0.000  0.000
      -0.000 -0.000  0.985  0.000  0.000
      -0.001  0.000  0.000  0.815 -0.000
       0.000  0.000  0.000 -0.000  0.988
     ------------------------ ATOM   21 ------------------------
     Tr[ns( 21)] =   9.47731
     eigenvalues:
       0.810  0.970  0.985  0.985  0.988
     eigenvectors (columns):
       0.007  1.000 -0.000 -0.000  0.000
      -0.000  0.000  1.000 -0.000  0.000
      -0.000  0.000  0.000  1.000  0.000
       1.000 -0.007  0.000  0.000 -0.000
       0.000 -0.000 -0.000 -0.000  1.000
     occupation matrix ns (before diag.):
       0.970 -0.000 -0.000 -0.001  0.000
      -0.000  0.985 -0.000  0.000  0.000
      -0.000 -0.000  0.985  0.000  0.000
      -0.001  0.000  0.000  0.810 -0.000
       0.000  0.000  0.000 -0.000  0.988
     ------------------------ ATOM   23 ------------------------
     Tr[ns( 23)] =   9.48635
     eigenvalues:
       0.815  0.970  0.985  0.985  0.988
     eigenvectors (columns):
       0.007  1.000 -0.000 -0.000  0.000
      -0.000  0.000  1.000 -0.000  0.000
      -0.000  0.000  0.000  1.000  0.000
       1.000 -0.007  0.000  0.000 -0.000
       0.000 -0.000 -0.000 -0.000  1.000
     occupation matrix ns (before diag.):
       0.970 -0.000 -0.000 -0.001  0.000
      -0.000  0.985 -0.000  0.000  0.000
      -0.000 -0.000  0.985  0.000  0.000
      -0.001  0.000  0.000  0.815 -0.000
       0.000  0.000  0.000 -0.000  0.988
     ------------------------ ATOM   24 ------------------------
     Tr[ns( 24)] =   9.47777
     eigenvalues:
       0.811  0.970  0.985  0.985  0.988
     eigenvectors (columns):
       0.007  1.000 -0.000 -0.000  0.000
      -0.000  0.000  1.000 -0.000  0.000
      -0.000  0.000  0.000  1.000  0.000
       1.000 -0.007  0.000  0.000 -0.000
       0.000 -0.000 -0.000 -0.000  1.000
     occupation matrix ns (before diag.):
       0.970 -0.000 -0.000 -0.001  0.000
      -0.000  0.985 -0.000  0.000  0.000
      -0.000 -0.000  0.985  0.000  0.000
      -0.001  0.000  0.000  0.811 -0.000
       0.000  0.000  0.000 -0.000  0.988

     Number of occupied Hubbard levels =   75.8559

     negative rho (up, down):  7.202E-01 0.000E+00

     HUBBARD ENERGY =    1.4220  (Ry)

     total cpu time spent up to now is      176.5 secs

     total energy              =   -6555.46068388 Ry
     estimated scf accuracy    <       0.42520347 Ry

     iteration #  6     ecut=    90.00 Ry     beta= 0.10
     Davidson diagonalization with overlap

---- Real-time Memory Report at c_bands before calling an iterative solver
          2997 MiB given to the printing process from OS
             0 MiB allocation reported by mallinfo(arena+hblkhd)
         11929 MiB available memory on the node where the printing process lives
------------------
     ethr =  8.57E-05,  avg # of iterations = 20.0

     =================== HUBBARD OCCUPATIONS ===================
     ------------------------ ATOM   14 ------------------------
     Tr[ns( 14)] =   9.34466
     eigenvalues:
       0.750  0.966  0.984  0.984  0.988
     eigenvectors (columns):
       0.005  1.000 -0.000 -0.000  0.000
      -0.000  0.000  1.000 -0.000  0.000
      -0.000  0.000  0.000  1.000  0.000
       1.000 -0.005  0.000  0.000 -0.000
       0.000 -0.000 -0.000 -0.000  1.000
     occupation matrix ns (before diag.):
       0.966 -0.000 -0.000 -0.001  0.000
      -0.000  0.984 -0.000  0.000  0.000
      -0.000 -0.000  0.984  0.000  0.000
      -0.001  0.000  0.000  0.750 -0.000
       0.000  0.000  0.000 -0.000  0.988
     ------------------------ ATOM   15 ------------------------
     Tr[ns( 15)] =   9.39097
     eigenvalues:
       0.773  0.966  0.984  0.984  0.988
     eigenvectors (columns):
       0.005  1.000 -0.000 -0.000  0.000
      -0.000  0.000  1.000 -0.000  0.000
      -0.000  0.000  0.000  1.000  0.000
       1.000 -0.005  0.000  0.000 -0.000
       0.000 -0.000 -0.000 -0.000  1.000
     occupation matrix ns (before diag.):
       0.966 -0.000 -0.000 -0.001  0.000
      -0.000  0.984 -0.000  0.000  0.000
      -0.000 -0.000  0.984  0.000  0.000
      -0.001  0.000  0.000  0.773 -0.000
       0.000  0.000  0.000 -0.000  0.988
     ------------------------ ATOM   17 ------------------------
     Tr[ns( 17)] =   9.34511
     eigenvalues:
       0.751  0.966  0.984  0.984  0.988
     eigenvectors (columns):
       0.005  1.000 -0.000 -0.000  0.000
      -0.000  0.000  1.000 -0.000  0.000
      -0.000  0.000  0.000  1.000  0.000
       1.000 -0.005  0.000  0.000 -0.000
       0.000 -0.000 -0.000 -0.000  1.000
     occupation matrix ns (before diag.):
       0.966 -0.000 -0.000 -0.001  0.000
      -0.000  0.984 -0.000  0.000  0.000
      -0.000 -0.000  0.984  0.000  0.000
      -0.001  0.000  0.000  0.751 -0.000
       0.000  0.000  0.000 -0.000  0.988
     ------------------------ ATOM   18 ------------------------
     Tr[ns( 18)] =   9.39137
     eigenvalues:
       0.773  0.966  0.984  0.984  0.988
     eigenvectors (columns):
       0.005  1.000 -0.000 -0.000  0.000
      -0.000  0.000  1.000 -0.000  0.000
      -0.000  0.000  0.000  1.000  0.000
       1.000 -0.005  0.000  0.000 -0.000
       0.000 -0.000 -0.000 -0.000  1.000
     occupation matrix ns (before diag.):
       0.966 -0.000 -0.000 -0.001  0.000
      -0.000  0.984 -0.000  0.000  0.000
      -0.000 -0.000  0.984  0.000  0.000
      -0.001  0.000  0.000  0.773 -0.000
       0.000  0.000  0.000 -0.000  0.988
     ------------------------ ATOM   20 ------------------------
     Tr[ns( 20)] =   9.34517
     eigenvalues:
       0.751  0.966  0.984  0.984  0.988
     eigenvectors (columns):
       0.005  1.000 -0.000 -0.000  0.000
      -0.000  0.000  1.000 -0.000  0.000
      -0.000  0.000  0.000  1.000  0.000
       1.000 -0.005  0.000  0.000 -0.000
       0.000 -0.000 -0.000 -0.000  1.000
     occupation matrix ns (before diag.):
       0.966 -0.000 -0.000 -0.001  0.000
      -0.000  0.984 -0.000  0.000  0.000
      -0.000 -0.000  0.984  0.000  0.000
      -0.001  0.000  0.000  0.751 -0.000
       0.000  0.000  0.000 -0.000  0.988
     ------------------------ ATOM   21 ------------------------
     Tr[ns( 21)] =   9.39105
     eigenvalues:
       0.773  0.966  0.984  0.984  0.988
     eigenvectors (columns):
       0.005  1.000 -0.000 -0.000  0.000
      -0.000  0.000  1.000 -0.000  0.000
      -0.000  0.000  0.000  1.000  0.000
       1.000 -0.005  0.000  0.000 -0.000
       0.000 -0.000 -0.000 -0.000  1.000
     occupation matrix ns (before diag.):
       0.966 -0.000 -0.000 -0.001  0.000
      -0.000  0.984 -0.000  0.000  0.000
      -0.000 -0.000  0.984  0.000  0.000
      -0.001  0.000  0.000  0.773 -0.000
       0.000  0.000  0.000 -0.000  0.988
     ------------------------ ATOM   23 ------------------------
     Tr[ns( 23)] =   9.34435
     eigenvalues:
       0.750  0.966  0.984  0.984  0.988
     eigenvectors (columns):
       0.005  1.000 -0.000 -0.000  0.000
      -0.000  0.000  1.000 -0.000  0.000
      -0.000  0.000  0.000  1.000  0.000
       1.000 -0.005  0.000  0.000 -0.000
       0.000 -0.000 -0.000 -0.000  1.000
     occupation matrix ns (before diag.):
       0.966 -0.000 -0.000 -0.001  0.000
      -0.000  0.984 -0.000  0.000  0.000
      -0.000 -0.000  0.984  0.000  0.000
      -0.001  0.000  0.000  0.750 -0.000
       0.000  0.000  0.000 -0.000  0.988
     ------------------------ ATOM   24 ------------------------
     Tr[ns( 24)] =   9.39059
     eigenvalues:
       0.773  0.966  0.984  0.984  0.988
     eigenvectors (columns):
       0.005  1.000 -0.000 -0.000  0.000
      -0.000  0.000  1.000 -0.000  0.000
      -0.000  0.000  0.000  1.000  0.000
       1.000 -0.005  0.000  0.000 -0.000
       0.000 -0.000 -0.000 -0.000  1.000
     occupation matrix ns (before diag.):
       0.966 -0.000 -0.000 -0.001  0.000
      -0.000  0.984 -0.000  0.000  0.000
      -0.000 -0.000  0.984  0.000  0.000
      -0.001  0.000  0.000  0.773 -0.000
       0.000  0.000  0.000 -0.000  0.988

     Number of occupied Hubbard levels =   74.9433

     negative rho (up, down):  7.117E-01 0.000E+00

     HUBBARD ENERGY =    1.4180  (Ry)

     total cpu time spent up to now is      210.9 secs

     total energy              =   -6555.46774969 Ry
     estimated scf accuracy    <       0.18641822 Ry

     iteration #  7     ecut=    90.00 Ry     beta= 0.10
     Davidson diagonalization with overlap

---- Real-time Memory Report at c_bands before calling an iterative solver
          3004 MiB given to the printing process from OS
             0 MiB allocation reported by mallinfo(arena+hblkhd)
         11774 MiB available memory on the node where the printing process lives
------------------
     ethr =  3.76E-05,  avg # of iterations =  5.0

     =================== HUBBARD OCCUPATIONS ===================
     ------------------------ ATOM   14 ------------------------
     Tr[ns( 14)] =   9.45979
     eigenvalues:
       0.806  0.967  0.984  0.984  0.988
     eigenvectors (columns):
       0.006  1.000 -0.000 -0.000  0.000
      -0.000  0.000  1.000 -0.000  0.000
      -0.000  0.000  0.000  1.000  0.000
       1.000 -0.006  0.000  0.000 -0.000
       0.000 -0.000 -0.000 -0.000  1.000
     occupation matrix ns (before diag.):
       0.967 -0.000 -0.000 -0.001  0.000
      -0.000  0.984 -0.000  0.000  0.000
      -0.000 -0.000  0.984  0.000  0.000
      -0.001  0.000  0.000  0.806 -0.000
       0.000  0.000  0.000 -0.000  0.988
     ------------------------ ATOM   15 ------------------------
     Tr[ns( 15)] =   9.31707
     eigenvalues:
       0.737  0.966  0.984  0.984  0.988
     eigenvectors (columns):
       0.004  1.000 -0.000 -0.000  0.000
      -0.000  0.000  1.000 -0.000  0.000
      -0.000  0.000  0.000  1.000  0.000
       1.000 -0.004  0.000  0.000 -0.000
       0.000 -0.000 -0.000 -0.000  1.000
     occupation matrix ns (before diag.):
       0.966 -0.000 -0.000 -0.001  0.000
      -0.000  0.984 -0.000  0.000  0.000
      -0.000 -0.000  0.984  0.000  0.000
      -0.001  0.000  0.000  0.737 -0.000
       0.000  0.000  0.000 -0.000  0.988
     ------------------------ ATOM   17 ------------------------
     Tr[ns( 17)] =   9.46008
     eigenvalues:
       0.807  0.967  0.984  0.984  0.988
     eigenvectors (columns):
       0.006  1.000 -0.000 -0.000  0.000
      -0.000  0.000  1.000 -0.000  0.000
      -0.000  0.000  0.000  1.000  0.000
       1.000 -0.006  0.000  0.000 -0.000
       0.000 -0.000 -0.000 -0.000  1.000
     occupation matrix ns (before diag.):
       0.967 -0.000 -0.000 -0.001  0.000
      -0.000  0.984 -0.000  0.000  0.000
      -0.000 -0.000  0.984  0.000  0.000
      -0.001  0.000  0.000  0.807 -0.000
       0.000  0.000  0.000 -0.000  0.988
     ------------------------ ATOM   18 ------------------------
     Tr[ns( 18)] =   9.31708
     eigenvalues:
       0.737  0.966  0.984  0.984  0.988
     eigenvectors (columns):
       0.004  1.000 -0.000 -0.000  0.000
      -0.000  0.000  1.000 -0.000  0.000
      -0.000  0.000  0.000  1.000  0.000
       1.000 -0.004  0.000  0.000 -0.000
       0.000 -0.000 -0.000 -0.000  1.000
     occupation matrix ns (before diag.):
       0.966 -0.000 -0.000 -0.001  0.000
      -0.000  0.984 -0.000  0.000  0.000
      -0.000 -0.000  0.984  0.000  0.000
      -0.001  0.000  0.000  0.737 -0.000
       0.000  0.000  0.000 -0.000  0.988
     ------------------------ ATOM   20 ------------------------
     Tr[ns( 20)] =   9.45986
     eigenvalues:
       0.807  0.967  0.984  0.984  0.988
     eigenvectors (columns):
       0.006  1.000 -0.000 -0.000  0.000
      -0.000  0.000  1.000 -0.000  0.000
      -0.000  0.000  0.000  1.000  0.000
       1.000 -0.006  0.000  0.000 -0.000
       0.000 -0.000 -0.000 -0.000  1.000
     occupation matrix ns (before diag.):
       0.967 -0.000 -0.000 -0.001  0.000
      -0.000  0.984 -0.000  0.000  0.000
      -0.000 -0.000  0.984  0.000  0.000
      -0.001  0.000  0.000  0.807 -0.000
       0.000  0.000  0.000 -0.000  0.988
     ------------------------ ATOM   21 ------------------------
     Tr[ns( 21)] =   9.31715
     eigenvalues:
       0.737  0.966  0.984  0.984  0.988
     eigenvectors (columns):
       0.004  1.000 -0.000 -0.000  0.000
      -0.000  0.000  1.000 -0.000  0.000
      -0.000  0.000  0.000  1.000  0.000
       1.000 -0.004  0.000  0.000 -0.000
       0.000 -0.000 -0.000 -0.000  1.000
     occupation matrix ns (before diag.):
       0.966 -0.000 -0.000 -0.001  0.000
      -0.000  0.984 -0.000  0.000  0.000
      -0.000 -0.000  0.984  0.000  0.000
      -0.001  0.000  0.000  0.737 -0.000
       0.000  0.000  0.000 -0.000  0.988
     ------------------------ ATOM   23 ------------------------
     Tr[ns( 23)] =   9.45990
     eigenvalues:
       0.807  0.967  0.984  0.984  0.988
     eigenvectors (columns):
       0.006  1.000 -0.000 -0.000  0.000
      -0.000  0.000  1.000 -0.000  0.000
      -0.000  0.000  0.000  1.000  0.000
       1.000 -0.006  0.000  0.000 -0.000
       0.000 -0.000 -0.000 -0.000  1.000
     occupation matrix ns (before diag.):
       0.967 -0.000 -0.000 -0.001  0.000
      -0.000  0.984 -0.000  0.000  0.000
      -0.000 -0.000  0.984  0.000  0.000
      -0.001  0.000  0.000  0.807 -0.000
       0.000  0.000  0.000 -0.000  0.988
     ------------------------ ATOM   24 ------------------------
     Tr[ns( 24)] =   9.31741
     eigenvalues:
       0.737  0.966  0.984  0.984  0.988
     eigenvectors (columns):
       0.004  1.000 -0.000 -0.000  0.000
      -0.000  0.000  1.000 -0.000  0.000
      -0.000  0.000  0.000  1.000  0.000
       1.000 -0.004  0.000  0.000 -0.000
       0.000 -0.000 -0.000 -0.000  1.000
     occupation matrix ns (before diag.):
       0.966 -0.000 -0.000 -0.001  0.000
      -0.000  0.984 -0.000  0.000  0.000
      -0.000 -0.000  0.984  0.000  0.000
      -0.001  0.000  0.000  0.737 -0.000
       0.000  0.000  0.000 -0.000  0.988

     Number of occupied Hubbard levels =   75.1083

     negative rho (up, down):  7.024E-01 0.000E+00

     HUBBARD ENERGY =    1.4173  (Ry)

     total cpu time spent up to now is      242.6 secs

     total energy              =   -6555.46647842 Ry
     estimated scf accuracy    <       0.18859304 Ry

     iteration #  8     ecut=    90.00 Ry     beta= 0.10
     Davidson diagonalization with overlap

---- Real-time Memory Report at c_bands before calling an iterative solver
          3008 MiB given to the printing process from OS
             0 MiB allocation reported by mallinfo(arena+hblkhd)
         11880 MiB available memory on the node where the printing process lives
------------------
     ethr =  3.76E-05,  avg # of iterations =  2.0

     =================== HUBBARD OCCUPATIONS ===================
     ------------------------ ATOM   14 ------------------------
     Tr[ns( 14)] =   9.42807
     eigenvalues:
       0.790  0.967  0.984  0.985  0.988
     eigenvectors (columns):
       0.006  1.000 -0.000 -0.000  0.000
      -0.000  0.000  1.000 -0.000  0.000
      -0.000  0.000  0.000  1.000  0.000
       1.000 -0.006  0.000  0.000 -0.000
       0.000 -0.000 -0.000 -0.000  1.000
     occupation matrix ns (before diag.):
       0.967 -0.000 -0.000 -0.001  0.000
      -0.000  0.984 -0.000  0.000  0.000
      -0.000 -0.000  0.985  0.000  0.000
      -0.001  0.000  0.000  0.790 -0.000
       0.000  0.000  0.000 -0.000  0.988
     ------------------------ ATOM   15 ------------------------
     Tr[ns( 15)] =   9.42182
     eigenvalues:
       0.787  0.967  0.984  0.984  0.988
     eigenvectors (columns):
       0.006  1.000 -0.000 -0.000  0.000
      -0.000  0.000  1.000 -0.000  0.000
      -0.000  0.000  0.000  1.000  0.000
       1.000 -0.006  0.000  0.000 -0.000
       0.000 -0.000 -0.000 -0.000  1.000
     occupation matrix ns (before diag.):
       0.967 -0.000 -0.000 -0.001  0.000
      -0.000  0.984 -0.000  0.000  0.000
      -0.000 -0.000  0.984  0.000  0.000
      -0.001  0.000  0.000  0.787 -0.000
       0.000  0.000  0.000 -0.000  0.988
     ------------------------ ATOM   17 ------------------------
     Tr[ns( 17)] =   9.42818
     eigenvalues:
       0.790  0.967  0.984  0.985  0.988
     eigenvectors (columns):
       0.006  1.000 -0.000 -0.000  0.000
      -0.000  0.000  1.000 -0.000  0.000
      -0.000  0.000  0.000  1.000  0.000
       1.000 -0.006  0.000  0.000 -0.000
       0.000 -0.000 -0.000 -0.000  1.000
     occupation matrix ns (before diag.):
       0.967 -0.000 -0.000 -0.001  0.000
      -0.000  0.984 -0.000  0.000  0.000
      -0.000 -0.000  0.985  0.000  0.000
      -0.001  0.000  0.000  0.790 -0.000
       0.000  0.000  0.000 -0.000  0.988
     ------------------------ ATOM   18 ------------------------
     Tr[ns( 18)] =   9.42128
     eigenvalues:
       0.787  0.967  0.984  0.984  0.988
     eigenvectors (columns):
       0.006  1.000 -0.000 -0.000  0.000
      -0.000  0.000  1.000 -0.000  0.000
      -0.000  0.000  0.000  1.000  0.000
       1.000 -0.006  0.000  0.000 -0.000
       0.000 -0.000 -0.000 -0.000  1.000
     occupation matrix ns (before diag.):
       0.967 -0.000 -0.000 -0.001  0.000
      -0.000  0.984 -0.000  0.000  0.000
      -0.000 -0.000  0.984  0.000  0.000
      -0.001  0.000  0.000  0.787 -0.000
       0.000  0.000  0.000 -0.000  0.988
     ------------------------ ATOM   20 ------------------------
     Tr[ns( 20)] =   9.42784
     eigenvalues:
       0.790  0.967  0.984  0.985  0.988
     eigenvectors (columns):
       0.006  1.000 -0.000 -0.000  0.000
      -0.000  0.000  1.000 -0.000  0.000
      -0.000  0.000  0.000  1.000  0.000
       1.000 -0.006  0.000  0.000 -0.000
       0.000 -0.000 -0.000 -0.000  1.000
     occupation matrix ns (before diag.):
       0.967 -0.000 -0.000 -0.001  0.000
      -0.000  0.984 -0.000  0.000  0.000
      -0.000 -0.000  0.985  0.000  0.000
      -0.001  0.000  0.000  0.790 -0.000
       0.000  0.000  0.000 -0.000  0.988
     ------------------------ ATOM   21 ------------------------
     Tr[ns( 21)] =   9.42146
     eigenvalues:
       0.787  0.967  0.984  0.984  0.988
     eigenvectors (columns):
       0.006  1.000 -0.000 -0.000  0.000
      -0.000  0.000  1.000 -0.000  0.000
      -0.000  0.000  0.000  1.000  0.000
       1.000 -0.006  0.000  0.000 -0.000
       0.000 -0.000 -0.000 -0.000  1.000
     occupation matrix ns (before diag.):
       0.967 -0.000 -0.000 -0.001  0.000
      -0.000  0.984 -0.000  0.000  0.000
      -0.000 -0.000  0.984  0.000  0.000
      -0.001  0.000  0.000  0.787 -0.000
       0.000  0.000  0.000 -0.000  0.988
     ------------------------ ATOM   23 ------------------------
     Tr[ns( 23)] =   9.42848
     eigenvalues:
       0.790  0.967  0.984  0.985  0.988
     eigenvectors (columns):
       0.006  1.000 -0.000 -0.000  0.000
      -0.000  0.000  1.000 -0.000  0.000
      -0.000  0.000  0.000  1.000  0.000
       1.000 -0.006  0.000  0.000 -0.000
       0.000 -0.000 -0.000 -0.000  1.000
     occupation matrix ns (before diag.):
       0.967 -0.000 -0.000 -0.001  0.000
      -0.000  0.984 -0.000  0.000  0.000
      -0.000 -0.000  0.985  0.000  0.000
      -0.001  0.000  0.000  0.790 -0.000
       0.000  0.000  0.000 -0.000  0.988
     ------------------------ ATOM   24 ------------------------
     Tr[ns( 24)] =   9.42235
     eigenvalues:
       0.788  0.967  0.984  0.984  0.988
     eigenvectors (columns):
       0.006  1.000 -0.000 -0.000  0.000
      -0.000  0.000  1.000 -0.000  0.000
      -0.000  0.000  0.000  1.000  0.000
       1.000 -0.006  0.000  0.000 -0.000
       0.000 -0.000 -0.000 -0.000  1.000
     occupation matrix ns (before diag.):
       0.967 -0.000 -0.000 -0.001  0.000
      -0.000  0.984 -0.000  0.000  0.000
      -0.000 -0.000  0.984  0.000  0.000
      -0.001  0.000  0.000  0.788 -0.000
       0.000  0.000  0.000 -0.000  0.988

     Number of occupied Hubbard levels =   75.3995

     negative rho (up, down):  7.028E-01 0.000E+00

     HUBBARD ENERGY =    1.4202  (Ry)

     total cpu time spent up to now is      273.5 secs

     total energy              =   -6555.47206185 Ry
     estimated scf accuracy    <       0.02376677 Ry

     iteration #  9     ecut=    90.00 Ry     beta= 0.10
     Davidson diagonalization with overlap

---- Real-time Memory Report at c_bands before calling an iterative solver
          3013 MiB given to the printing process from OS
             0 MiB allocation reported by mallinfo(arena+hblkhd)
         11853 MiB available memory on the node where the printing process lives
------------------
     ethr =  4.79E-06,  avg # of iterations = 11.0

     =================== HUBBARD OCCUPATIONS ===================
     ------------------------ ATOM   14 ------------------------
     Tr[ns( 14)] =   9.42061
     eigenvalues:
       0.786  0.967  0.984  0.985  0.988
     eigenvectors (columns):
       0.006  1.000 -0.000 -0.000  0.000
      -0.000  0.000  1.000 -0.000  0.000
      -0.000  0.000  0.000  1.000  0.000
       1.000 -0.006  0.000  0.000 -0.000
       0.000 -0.000 -0.000 -0.000  1.000
     occupation matrix ns (before diag.):
       0.967 -0.000 -0.000 -0.001  0.000
      -0.000  0.984 -0.000  0.000  0.000
      -0.000 -0.000  0.985  0.000  0.000
      -0.001  0.000  0.000  0.786 -0.000
       0.000  0.000  0.000 -0.000  0.988
     ------------------------ ATOM   15 ------------------------
     Tr[ns( 15)] =   9.41820
     eigenvalues:
       0.785  0.967  0.984  0.985  0.988
     eigenvectors (columns):
       0.006  1.000 -0.000 -0.000  0.000
      -0.000  0.000  1.000 -0.000  0.000
      -0.000  0.000  0.000  1.000  0.000
       1.000 -0.006  0.000  0.000 -0.000
       0.000 -0.000 -0.000 -0.000  1.000
     occupation matrix ns (before diag.):
       0.967 -0.000 -0.000 -0.001  0.000
      -0.000  0.984 -0.000  0.000  0.000
      -0.000 -0.000  0.985  0.000  0.000
      -0.001  0.000  0.000  0.785 -0.000
       0.000  0.000  0.000 -0.000  0.988
     ------------------------ ATOM   17 ------------------------
     Tr[ns( 17)] =   9.42064
     eigenvalues:
       0.786  0.967  0.984  0.985  0.988
     eigenvectors (columns):
       0.006  1.000 -0.000 -0.000  0.000
      -0.000  0.000  1.000 -0.000  0.000
      -0.000  0.000  0.000  1.000  0.000
       1.000 -0.006  0.000  0.000 -0.000
       0.000 -0.000 -0.000 -0.000  1.000
     occupation matrix ns (before diag.):
       0.967 -0.000 -0.000 -0.001  0.000
      -0.000  0.984 -0.000  0.000  0.000
      -0.000 -0.000  0.985  0.000  0.000
      -0.001  0.000  0.000  0.786 -0.000
       0.000  0.000  0.000 -0.000  0.988
     ------------------------ ATOM   18 ------------------------
     Tr[ns( 18)] =   9.41824
     eigenvalues:
       0.785  0.967  0.984  0.985  0.988
     eigenvectors (columns):
       0.006  1.000 -0.000 -0.000  0.000
      -0.000  0.000  1.000 -0.000  0.000
      -0.000  0.000  0.000  1.000  0.000
       1.000 -0.006  0.000  0.000 -0.000
       0.000 -0.000 -0.000 -0.000  1.000
     occupation matrix ns (before diag.):
       0.967 -0.000 -0.000 -0.001  0.000
      -0.000  0.984 -0.000  0.000  0.000
      -0.000 -0.000  0.985  0.000  0.000
      -0.001  0.000  0.000  0.785 -0.000
       0.000  0.000  0.000 -0.000  0.988
     ------------------------ ATOM   20 ------------------------
     Tr[ns( 20)] =   9.42056
     eigenvalues:
       0.786  0.967  0.984  0.985  0.988
     eigenvectors (columns):
       0.006  1.000 -0.000 -0.000  0.000
      -0.000  0.000  1.000 -0.000  0.000
      -0.000  0.000  0.000  1.000  0.000
       1.000 -0.006  0.000  0.000 -0.000
       0.000 -0.000 -0.000 -0.000  1.000
     occupation matrix ns (before diag.):
       0.967 -0.000 -0.000 -0.001  0.000
      -0.000  0.984 -0.000  0.000  0.000
      -0.000 -0.000  0.985  0.000  0.000
      -0.001  0.000  0.000  0.786 -0.000
       0.000  0.000  0.000 -0.000  0.988
     ------------------------ ATOM   21 ------------------------
     Tr[ns( 21)] =   9.41824
     eigenvalues:
       0.785  0.967  0.984  0.985  0.988
     eigenvectors (columns):
       0.006  1.000 -0.000 -0.000  0.000
      -0.000  0.000  1.000 -0.000  0.000
      -0.000  0.000  0.000  1.000  0.000
       1.000 -0.006  0.000  0.000 -0.000
       0.000 -0.000 -0.000 -0.000  1.000
     occupation matrix ns (before diag.):
       0.967 -0.000 -0.000 -0.001  0.000
      -0.000  0.984 -0.000  0.000  0.000
      -0.000 -0.000  0.985  0.000  0.000
      -0.001  0.000  0.000  0.785 -0.000
       0.000  0.000  0.000 -0.000  0.988
     ------------------------ ATOM   23 ------------------------
     Tr[ns( 23)] =   9.42071
     eigenvalues:
       0.786  0.967  0.984  0.985  0.988
     eigenvectors (columns):
       0.006  1.000 -0.000 -0.000  0.000
      -0.000  0.000  1.000 -0.000  0.000
      -0.000  0.000  0.000  1.000  0.000
       1.000 -0.006  0.000  0.000 -0.000
       0.000 -0.000 -0.000 -0.000  1.000
     occupation matrix ns (before diag.):
       0.967 -0.000 -0.000 -0.001  0.000
      -0.000  0.984 -0.000  0.000  0.000
      -0.000 -0.000  0.985  0.000  0.000
      -0.001  0.000  0.000  0.786 -0.000
       0.000  0.000  0.000 -0.000  0.988
     ------------------------ ATOM   24 ------------------------
     Tr[ns( 24)] =   9.41822
     eigenvalues:
       0.785  0.967  0.984  0.985  0.988
     eigenvectors (columns):
       0.006  1.000 -0.000 -0.000  0.000
      -0.000  0.000  1.000 -0.000  0.000
      -0.000  0.000  0.000  1.000  0.000
       1.000 -0.006  0.000  0.000 -0.000
       0.000 -0.000 -0.000 -0.000  1.000
     occupation matrix ns (before diag.):
       0.967 -0.000 -0.000 -0.001  0.000
      -0.000  0.984 -0.000  0.000  0.000
      -0.000 -0.000  0.985  0.000  0.000
      -0.001  0.000  0.000  0.785 -0.000
       0.000  0.000  0.000 -0.000  0.988

     Number of occupied Hubbard levels =   75.3554

     negative rho (up, down):  6.998E-01 0.000E+00

     HUBBARD ENERGY =    1.4247  (Ry)

     total cpu time spent up to now is      306.6 secs

     total energy              =   -6555.47034613 Ry
     estimated scf accuracy    <       0.01356205 Ry

     iteration # 10     ecut=    90.00 Ry     beta= 0.10
     Davidson diagonalization with overlap

---- Real-time Memory Report at c_bands before calling an iterative solver
          3018 MiB given to the printing process from OS
             0 MiB allocation reported by mallinfo(arena+hblkhd)
         11838 MiB available memory on the node where the printing process lives
------------------
     ethr =  2.73E-06,  avg # of iterations =  6.0

     =================== HUBBARD OCCUPATIONS ===================
     ------------------------ ATOM   14 ------------------------
     Tr[ns( 14)] =   9.42234
     eigenvalues:
       0.787  0.967  0.984  0.985  0.988
     eigenvectors (columns):
       0.006  1.000 -0.000 -0.000  0.000
      -0.000  0.000  1.000 -0.000  0.000
      -0.000  0.000  0.000  1.000  0.000
       1.000 -0.006  0.000  0.000 -0.000
       0.000 -0.000 -0.000 -0.000  1.000
     occupation matrix ns (before diag.):
       0.967 -0.000 -0.000 -0.001  0.000
      -0.000  0.984 -0.000  0.000  0.000
      -0.000 -0.000  0.985  0.000  0.000
      -0.001  0.000  0.000  0.787 -0.000
       0.000  0.000  0.000 -0.000  0.988
     ------------------------ ATOM   15 ------------------------
     Tr[ns( 15)] =   9.42067
     eigenvalues:
       0.786  0.967  0.984  0.985  0.988
     eigenvectors (columns):
       0.006  1.000 -0.000 -0.000  0.000
      -0.000  0.000  1.000 -0.000  0.000
      -0.000  0.000  0.000  1.000  0.000
       1.000 -0.006  0.000  0.000 -0.000
       0.000 -0.000 -0.000 -0.000  1.000
     occupation matrix ns (before diag.):
[...]
     atom   37 type  6   force =     0.00020311   -0.00000000   13.86318957
     atom   38 type  6   force =     0.00020128    0.00000000  -13.86336275
     atom   39 type  6   force =     0.00019911    0.00000000   13.86315504
     atom   40 type  6   force =     0.00020177   -0.00000000  -13.86332994
     atom   41 type  6   force =     0.00000000   -0.00020422   13.85954794
     atom   42 type  6   force =    -0.00000000   -0.00020203  -13.85972284
     atom   43 type  6   force =    -0.00000000   -0.00020011   13.85951660
     atom   44 type  6   force =     0.00000000   -0.00020271  -13.85968659
     atom   45 type  6   force =    -0.00000000    0.00020422   13.85954794
     atom   46 type  6   force =     0.00000000    0.00020203  -13.85972284
     atom   47 type  6   force =     0.00000000    0.00020011   13.85951660
     atom   48 type  6   force =    -0.00000000    0.00020271  -13.85968659
     The core correction contribution to forces
     atom    1 type  1   force =     0.00000001    0.00000001    0.00000001
     atom    2 type  1   force =     0.00000001   -0.00000001    0.00000001
     atom    3 type  1   force =    -0.00000001    0.00000001    0.00000001
     atom    4 type  1   force =    -0.00000001   -0.00000001    0.00000001
     atom    5 type  2   force =    -0.00000002   -0.00000002    0.00047735
     atom    6 type  2   force =    -0.00000002   -0.00000002   -0.00047735
     atom    7 type  2   force =    -0.00000002    0.00000002    0.00047735
     atom    8 type  2   force =    -0.00000002    0.00000002   -0.00047735
     atom    9 type  2   force =     0.00000002   -0.00000002    0.00047735
     atom   10 type  2   force =     0.00000002   -0.00000002   -0.00047735
     atom   11 type  2   force =     0.00000002    0.00000002    0.00047735
     atom   12 type  2   force =     0.00000002    0.00000002   -0.00047735
     atom   13 type  3   force =     0.00000000    0.00000000    0.00000001
     atom   14 type  4   force =     0.00000000   -0.00000000    0.00008779
     atom   15 type  5   force =     0.00000000    0.00000000   -0.00008778
     atom   16 type  3   force =     0.00000000    0.00000000    0.00000001
     atom   17 type  5   force =     0.00000000    0.00000000    0.00008780
     atom   18 type  4   force =     0.00000000    0.00000000   -0.00008779
     atom   19 type  3   force =     0.00000000    0.00000000    0.00000001
     atom   20 type  5   force =     0.00000000    0.00000000    0.00008780
     atom   21 type  4   force =     0.00000000    0.00000000   -0.00008779
     atom   22 type  3   force =     0.00000000    0.00000000    0.00000001
     atom   23 type  4   force =     0.00000000    0.00000000    0.00008781
     atom   24 type  5   force =     0.00000000    0.00000000   -0.00008780
     atom   25 type  6   force =     0.00000000   -0.00000000    0.00385632
     atom   26 type  6   force =     0.00000000    0.00000000   -0.00385633
     atom   27 type  6   force =     0.00000000   -0.00000000    0.00385636
     atom   28 type  6   force =    -0.00000000    0.00000000   -0.00385637
     atom   29 type  6   force =     0.00000000   -0.00000000    0.00385636
     atom   30 type  6   force =     0.00000000   -0.00000000   -0.00385637
     atom   31 type  6   force =    -0.00000000    0.00000000    0.00385640
     atom   32 type  6   force =     0.00000000   -0.00000000   -0.00385641
     atom   33 type  6   force =     0.00000001    0.00000000   -0.00031428
     atom   34 type  6   force =     0.00000001    0.00000000    0.00031428
     atom   35 type  6   force =     0.00000000    0.00000000   -0.00031428
     atom   36 type  6   force =     0.00000001   -0.00000000    0.00031428
     atom   37 type  6   force =    -0.00000001   -0.00000000   -0.00031428
     atom   38 type  6   force =    -0.00000001   -0.00000000    0.00031428
     atom   39 type  6   force =    -0.00000000   -0.00000000   -0.00031428
     atom   40 type  6   force =    -0.00000001    0.00000000    0.00031428
     atom   41 type  6   force =     0.00000000    0.00000001   -0.00031114
     atom   42 type  6   force =     0.00000000    0.00000001    0.00031114
     atom   43 type  6   force =     0.00000000    0.00000000   -0.00031114
     atom   44 type  6   force =    -0.00000000    0.00000001    0.00031114
     atom   45 type  6   force =     0.00000000   -0.00000001   -0.00031114
     atom   46 type  6   force =     0.00000000   -0.00000001    0.00031114
     atom   47 type  6   force =     0.00000000   -0.00000000   -0.00031114
     atom   48 type  6   force =    -0.00000000   -0.00000001    0.00031114
     The Hubbard contrib.    to forces
     atom    1 type  1   force =    -0.00000002   -0.00000002   -0.00000000
     atom    2 type  1   force =    -0.00000002    0.00000002   -0.00000000
     atom    3 type  1   force =     0.00000002   -0.00000002   -0.00000000
     atom    4 type  1   force =     0.00000002    0.00000002   -0.00000000
     atom    5 type  2   force =    -0.00000000   -0.00000000   -0.00212501
     atom    6 type  2   force =    -0.00000000   -0.00000000    0.00212492
     atom    7 type  2   force =    -0.00000000    0.00000000   -0.00212501
     atom    8 type  2   force =    -0.00000000    0.00000000    0.00212492
     atom    9 type  2   force =     0.00000000   -0.00000000   -0.00212501
     atom   10 type  2   force =     0.00000000   -0.00000000    0.00212492
     atom   11 type  2   force =     0.00000000    0.00000000   -0.00212501
     atom   12 type  2   force =     0.00000000    0.00000000    0.00212492
     atom   13 type  3   force =     0.00000000    0.00000000   -0.00000000
     atom   14 type  4   force =     0.00000000    0.00000000    0.00224463
     atom   15 type  5   force =     0.00000000    0.00000000   -0.00224488
     atom   16 type  3   force =     0.00000000    0.00000000   -0.00000000
     atom   17 type  5   force =     0.00000000    0.00000000    0.00224455
     atom   18 type  4   force =     0.00000000    0.00000000   -0.00224476
     atom   19 type  3   force =     0.00000000    0.00000000   -0.00000000
     atom   20 type  5   force =     0.00000000    0.00000000    0.00224457
     atom   21 type  4   force =     0.00000000    0.00000000   -0.00224480
     atom   22 type  3   force =     0.00000000    0.00000000   -0.00000000
     atom   23 type  4   force =     0.00000000    0.00000000    0.00224443
     atom   24 type  5   force =     0.00000000    0.00000000   -0.00224465
     atom   25 type  6   force =     0.00000000    0.00000000   -0.00020537
     atom   26 type  6   force =     0.00000000    0.00000000    0.00020536
     atom   27 type  6   force =     0.00000000    0.00000000   -0.00020537
     atom   28 type  6   force =     0.00000000    0.00000000    0.00020536
     atom   29 type  6   force =     0.00000000    0.00000000   -0.00020537
     atom   30 type  6   force =     0.00000000    0.00000000    0.00020536
     atom   31 type  6   force =     0.00000000    0.00000000   -0.00020538
     atom   32 type  6   force =     0.00000000    0.00000000    0.00020536
     atom   33 type  6   force =     0.00000010    0.00000000    0.00057113
     atom   34 type  6   force =     0.00000010    0.00000000   -0.00057111
     atom   35 type  6   force =     0.00000010    0.00000000    0.00057114
     atom   36 type  6   force =     0.00000010    0.00000000   -0.00057112
     atom   37 type  6   force =    -0.00000010    0.00000000    0.00057113
     atom   38 type  6   force =    -0.00000010    0.00000000   -0.00057111
     atom   39 type  6   force =    -0.00000010    0.00000000    0.00057114
     atom   40 type  6   force =    -0.00000010    0.00000000   -0.00057112
     atom   41 type  6   force =     0.00000000    0.00000010    0.00057316
     atom   42 type  6   force =     0.00000000    0.00000009   -0.00057314
     atom   43 type  6   force =     0.00000000    0.00000010    0.00057318
     atom   44 type  6   force =     0.00000000    0.00000010   -0.00057316
     atom   45 type  6   force =     0.00000000   -0.00000010    0.00057316
     atom   46 type  6   force =     0.00000000   -0.00000009   -0.00057314
     atom   47 type  6   force =     0.00000000   -0.00000010    0.00057318
     atom   48 type  6   force =     0.00000000   -0.00000010   -0.00057316
     The SCF correction term to forces
     atom    1 type  1   force =    -0.00000000   -0.00000001   -0.00000046
     atom    2 type  1   force =    -0.00000000    0.00000001   -0.00000046
     atom    3 type  1   force =     0.00000000   -0.00000001   -0.00000046
     atom    4 type  1   force =     0.00000000    0.00000001   -0.00000046
     atom    5 type  2   force =     0.00000001    0.00000002    0.00005925
     atom    6 type  2   force =     0.00000002    0.00000002   -0.00005894
     atom    7 type  2   force =     0.00000001   -0.00000002    0.00005925
     atom    8 type  2   force =     0.00000002   -0.00000002   -0.00005894
     atom    9 type  2   force =    -0.00000001    0.00000002    0.00005925
     atom   10 type  2   force =    -0.00000002    0.00000002   -0.00005894
     atom   11 type  2   force =    -0.00000001   -0.00000002    0.00005925
     atom   12 type  2   force =    -0.00000002   -0.00000002   -0.00005894
     atom   13 type  3   force =     0.00000000   -0.00000000    0.00000046
     atom   14 type  4   force =     0.00000000   -0.00000000   -0.00000344
     atom   15 type  5   force =    -0.00000000    0.00000000    0.00000237
     atom   16 type  3   force =     0.00000000    0.00000000    0.00000053
     atom   17 type  5   force =     0.00000000    0.00000000   -0.00000372
     atom   18 type  4   force =    -0.00000000    0.00000000    0.00000247
     atom   19 type  3   force =    -0.00000000   -0.00000000    0.00000054
     atom   20 type  5   force =    -0.00000000   -0.00000000   -0.00000371
     atom   21 type  4   force =     0.00000000   -0.00000000    0.00000248
     atom   22 type  3   force =    -0.00000000   -0.00000000    0.00000050
     atom   23 type  4   force =    -0.00000000    0.00000000   -0.00000363
     atom   24 type  5   force =     0.00000000    0.00000000    0.00000250
     atom   25 type  6   force =    -0.00000000   -0.00000000    0.00000006
     atom   26 type  6   force =     0.00000000    0.00000000    0.00000015
     atom   27 type  6   force =    -0.00000000   -0.00000000   -0.00000029
     atom   28 type  6   force =     0.00000000    0.00000000    0.00000046
     atom   29 type  6   force =    -0.00000000   -0.00000000   -0.00000015
     atom   30 type  6   force =     0.00000000    0.00000000    0.00000037
     atom   31 type  6   force =    -0.00000000   -0.00000000   -0.00000020
     atom   32 type  6   force =     0.00000000    0.00000000    0.00000040
     atom   33 type  6   force =     0.00000002    0.00000000    0.00000172
     atom   34 type  6   force =    -0.00000002   -0.00000000   -0.00000188
     atom   35 type  6   force =     0.00000001    0.00000000    0.00000170
     atom   36 type  6   force =    -0.00000002   -0.00000000   -0.00000186
     atom   37 type  6   force =    -0.00000002    0.00000000    0.00000172
     atom   38 type  6   force =     0.00000002   -0.00000000   -0.00000188
     atom   39 type  6   force =    -0.00000001    0.00000000    0.00000170
     atom   40 type  6   force =     0.00000002   -0.00000000   -0.00000186
     atom   41 type  6   force =     0.00000000   -0.00000001    0.00000159
     atom   42 type  6   force =    -0.00000000    0.00000000   -0.00000172
     atom   43 type  6   force =    -0.00000000   -0.00000003    0.00000156
     atom   44 type  6   force =    -0.00000000   -0.00000000   -0.00000169
     atom   45 type  6   force =     0.00000000    0.00000001    0.00000159
     atom   46 type  6   force =    -0.00000000   -0.00000000   -0.00000172
     atom   47 type  6   force =    -0.00000000    0.00000003    0.00000156
     atom   48 type  6   force =    -0.00000000    0.00000000   -0.00000169

     Total force =     0.003716     Total SCF correction =     0.000168
     Energy error            =      3.4E-05 Ry
     Gradient error          =      9.2E-04 Ry/Bohr

     bfgs converged in  14 scf cycles and  13 bfgs steps
     (criteria: energy <  1.0E-04 Ry, force <  1.0E-03 Ry/Bohr)

     End of BFGS Geometry Optimization

     Final energy             =   -6555.7579542601 Ry

     File ./YBCO.relax/YBCO.relax.bfgs deleted, as requested
Begin final coordinates

ATOMIC_POSITIONS (crystal)
Y                0.2500000714        0.2500000620        0.4999999641
Y                0.2500000714        0.7499999380        0.4999999641
Y                0.7499999286        0.2500000620        0.4999999641
Y                0.7499999286        0.7499999380        0.4999999641
Ba               0.2499998838        0.2499998499        0.2063011086
Ba               0.2499998755        0.2499998635        0.7936989239
Ba               0.2499998838        0.7500001501        0.2063011086
Ba               0.2499998755        0.7500001365        0.7936989239
Ba               0.7500001162        0.2499998499        0.2063011086
Ba               0.7500001245        0.2499998635        0.7936989239
Ba               0.7500001162        0.7500001501        0.2063011086
Ba               0.7500001245        0.7500001365        0.7936989239
Cu               0.0000000000        0.0000000000        0.0000004946
Cu1              0.0000000000        0.0000000000        0.3740445196
Cu2              0.0000000000        0.0000000000        0.6259548866
Cu               0.0000000000        0.5000000000        0.0000005478
Cu2              0.0000000000        0.5000000000        0.3740443515
Cu1              0.0000000000        0.5000000000        0.6259550301
Cu               0.5000000000        0.0000000000        0.0000004827
Cu2              0.5000000000        0.0000000000        0.3740443729
Cu1              0.5000000000        0.0000000000        0.6259550383
Cu               0.5000000000        0.5000000000        0.0000005137
Cu1              0.5000000000        0.5000000000        0.3740441718
Cu2              0.5000000000        0.5000000000        0.6259552249
O                0.0000000000        0.0000000000        0.1466911058
O                0.0000000000        0.0000000000        0.8533095288
O                0.5000000000        0.0000000000        0.1466911126
O                0.5000000000        0.0000000000        0.8533094871
O                0.0000000000        0.5000000000        0.1466911071
O                0.0000000000        0.5000000000        0.8533096239
O                0.5000000000        0.5000000000        0.1466911258
O                0.5000000000        0.5000000000        0.8533095095
O                0.2499993638        0.0000000000        0.3807473874
O                0.2499993681        0.0000000000        0.6192523476
O                0.2499993797        0.5000000000        0.3807473987
O                0.2499993679        0.5000000000        0.6192523213
O                0.7500006362        0.0000000000        0.3807473874
O                0.7500006319        0.0000000000        0.6192523476
O                0.7500006203        0.5000000000        0.3807473987
O                0.7500006321        0.5000000000        0.6192523213
O                0.0000000000        0.2499993641        0.3807763274
O                0.0000000000        0.2499993758        0.6192233990
O                0.5000000000        0.2499993805        0.3807763402
O                0.5000000000        0.2499993748        0.6192233679
O                0.0000000000        0.7500006359        0.3807763274
O                0.0000000000        0.7500006242        0.6192233990
O                0.5000000000        0.7500006195        0.3807763402
O                0.5000000000        0.7500006252        0.6192233679
End final coordinates



     Writing all to output data dir ./YBCO.relax/YBCO.relax.save/
 
     init_run     :     15.20s CPU     16.27s WALL (       1 calls)
     electrons    :  11255.88s CPU  12233.09s WALL (      14 calls)
     update_pot   :      6.81s CPU      7.29s WALL (      13 calls)
     forces       :   1815.21s CPU   1857.57s WALL (      14 calls)

     Called by init_run:
     wfcinit      :      8.01s CPU      8.24s WALL (       1 calls)
     wfcinit:atom :      0.03s CPU      0.05s WALL (       1 calls)
     wfcinit:wfcr :      5.40s CPU      5.52s WALL (       1 calls)
     potinit      :      0.35s CPU      0.39s WALL (       1 calls)
     hinit0       :      0.97s CPU      0.99s WALL (       1 calls)

     Called by electrons:
     c_bands      :   5032.90s CPU   5124.05s WALL (     388 calls)
     sum_band     :   3820.67s CPU   4355.30s WALL (     388 calls)
     v_of_rho     :    126.54s CPU    138.17s WALL (     401 calls)
     v_h          :     11.88s CPU     14.38s WALL (     401 calls)
     v_xc         :    118.56s CPU    128.19s WALL (     415 calls)
     newd         :   2309.24s CPU   2659.90s WALL (     401 calls)
     mix_rho      :     34.28s CPU     36.15s WALL (     388 calls)

     Called by c_bands:
     init_us_2    :     44.77s CPU     44.85s WALL (     805 calls)
     init_us_2:cp :     44.76s CPU     44.85s WALL (     805 calls)
     cegterg      :   4823.03s CPU   4913.96s WALL (     388 calls)

     Called by sum_band:
     sum_band:wei :      0.10s CPU      0.12s WALL (     388 calls)
     sum_band:loo :    727.10s CPU    740.71s WALL (     388 calls)
     sum_band:buf :      0.00s CPU      0.00s WALL (     388 calls)
     sum_band:ini :     21.72s CPU     21.75s WALL (     388 calls)
     sum_band:cal :    259.39s CPU    260.04s WALL (     388 calls)
     sum_band:bec :      0.47s CPU      0.48s WALL (     388 calls)
     addusdens    :   3045.81s CPU   3552.64s WALL (     388 calls)
                                        0.00s GPU  (     388 calls)
     addusd:skk   :     27.31s CPU     37.37s WALL (    2328 calls)
                                        0.00s GPU  (    2328 calls)

     Called by *egterg:
     cdiaghg      :    102.03s CPU    106.22s WALL (    1310 calls)
     cegterg:over :    451.87s CPU    455.82s WALL (     936 calls)
     cegterg:upda :    255.16s CPU    265.31s WALL (     936 calls)
     cegterg:last :    612.73s CPU    614.32s WALL (     693 calls)
     cdiaghg:chol :      2.03s CPU      2.25s WALL (    1310 calls)
     cdiaghg:inve :      1.12s CPU      1.31s WALL (    1310 calls)
     cdiaghg:para :     21.20s CPU     23.31s WALL (    2620 calls)
     h_psi        :   2637.55s CPU   2693.75s WALL (    1325 calls)
     s_psi        :    604.84s CPU    605.06s WALL (    1367 calls)
     g_psi        :      7.90s CPU      7.98s WALL (     936 calls)

     Called by h_psi:
     h_psi:calbec :    567.75s CPU    569.23s WALL (    1325 calls)
     vloc_psi     :   1298.16s CPU   1344.10s WALL (    1325 calls)
     add_vuspsi   :    586.87s CPU    586.92s WALL (    1325 calls)
     vhpsi        :    168.43s CPU    170.08s WALL (    1325 calls)

     General routines
     calbec       :   1229.71s CPU   1236.03s WALL (   19666 calls)
     fft          :     87.97s CPU    100.86s WALL (    5353 calls)
     ffts         :      3.16s CPU      3.33s WALL (     789 calls)
     fftw         :    933.43s CPU    967.37s WALL (  611918 calls)
     interpolate  :      9.35s CPU     10.20s WALL (     401 calls)
 
     Parallel routines

     Hubbard U routines
     new_ns       :     15.06s CPU     15.49s WALL (     388 calls)
     vhpsi        :    168.43s CPU    170.08s WALL (    1325 calls)
     force_hub    :   1655.70s CPU   1683.25s WALL (      14 calls)
                                        0.00s GPU  (      14 calls)
 
     PWSCF        :      3h40m CPU      3h57m WALL

 
   This run was terminated on:  19:22:20   9Dec2023            

=------------------------------------------------------------------------------=
   JOB DONE.
=------------------------------------------------------------------------------=
