
     Program PWSCF v.7.2 starts on  1Jan2024 at 22:49:19 

     This program is part of the open-source Quantum ESPRESSO suite
     for quantum simulation of materials; please cite
         "P. Giannozzi et al., J. Phys.:Condens. Matter 21 395502 (2009);
         "P. Giannozzi et al., J. Phys.:Condens. Matter 29 465901 (2017);
         "P. Giannozzi et al., J. Chem. Phys. 152 154105 (2020);
          URL http://www.quantum-espresso.org", 
     in publications or presentations arising from this work. More details at
     http://www.quantum-espresso.org/quote

     Parallel version (MPI), running on     4 processors

     MPI processes distributed on     1 nodes
     8358 MiB available memory on the printing compute node when the environment starts
 
     Waiting for input...
     Reading input from standard input
Warning: card &CELL ignored
Warning: card / ignored

     Current dimensions of program PWSCF are:
     Max number of different atomic species (ntypx) = 10
     Max number of k-points (npk) =  40000
     Max angular momentum in pseudopotentials (lmaxx) =  4
     Found identity + ( -0.5000 -0.5000  0.0000) symmetry
     This is a supercell, fractional translations are disabled
 
     R & G space division:  proc/nbgrp/npool/nimage =       4
     Subspace diagonalization in iterative solution of the eigenvalue problem:
     one sub-group per band group will be used
     custom distributed-memory algorithm (size of sub-group:  2*  2 procs)

 
     Parallelization info
     --------------------
     sticks:   dense  smooth     PW     G-vecs:    dense   smooth      PW
     Min        2210     984    271               238514    70654   10061
     Max        2211     985    272               238519    70656   10062
     Sum        8841    3937   1085               954065   282619   40245
 
     Using Slab Decomposition
 


     bravais-lattice index     =            6
     lattice parameter (alat)  =      14.3459  a.u.
     unit-cell volume          =    4502.1906 (a.u.)^3
     number of atoms/cell      =           48
     number of atomic types    =            6
     number of electrons       =       496.00
     number of Kohn-Sham states=          298
     kinetic-energy cutoff     =      60.0000  Ry
     charge density cutoff     =     540.0000  Ry
     scf convergence threshold =      1.0E-08
     mixing beta               =       0.1000
     number of iterations used =            8  plain     mixing
     Exchange-correlation= SLA  PZ   NOGX NOGC
                           (   1   1   0   0   0   0   0)
     Hubbard projectors: ortho-atomic
     Hubbard parameters of DFT+U (Dudarev formulation) in eV:
     U(Cu1-3d) =  2.5000
     U(Cu2-3d) =  2.5000

     Internal variables: lda_plus_u = T, lda_plus_u_kind = 0

     celldm(1)=  14.345919  celldm(2)=   0.000000  celldm(3)=   1.524891
     celldm(4)=   0.000000  celldm(5)=   0.000000  celldm(6)=   0.000000

     crystal axes: (cart. coord. in units of alat)
               a(1) = (   1.000000   0.000000   0.000000 )  
               a(2) = (   0.000000   1.000000   0.000000 )  
               a(3) = (   0.000000   0.000000   1.524891 )  

     reciprocal axes: (cart. coord. in units 2 pi/alat)
               b(1) = (  1.000000  0.000000  0.000000 )  
               b(2) = (  0.000000  1.000000  0.000000 )  
               b(3) = (  0.000000  0.000000  0.655785 )  


     PseudoPot. # 1 for Y  read from file:
     ~/q-e/pseudo/gbrv_lda/y_lda_v1.4.uspp.F.UPF
     MD5 check sum: Not computed, couldn't open file
     Pseudo is Ultrasoft + core correction, Zval = 11.0
     Generated by new atomic code, or converted to UPF format
     Using radial grid of  885 points,  6 beta functions with: 
                l(1) =   0
                l(2) =   0
                l(3) =   1
                l(4) =   1
                l(5) =   2
                l(6) =   2
     Q(r) pseudized with  8 coefficients,  rinner =    1.200   1.200   1.200
                                                       1.200   1.200

     PseudoPot. # 2 for Ba read from file:
     ~/q-e/pseudo/gbrv_lda/ba_lda_v1.uspp.F.UPF
     MD5 check sum: Not computed, couldn't open file
     Pseudo is Ultrasoft + core correction, Zval = 10.0
     Generated by new atomic code, or converted to UPF format
     Using radial grid of  907 points,  7 beta functions with: 
                l(1) =   0
                l(2) =   0
                l(3) =   1
                l(4) =   1
                l(5) =   2
                l(6) =   2
                l(7) =   3
     Q(r) pseudized with  6 coefficients,  rinner =    1.700   1.700   1.700
                                                       1.700   1.700   1.700
                                                       1.700

     PseudoPot. # 3 for Cu read from file:
     ~/q-e/pseudo/gbrv_lda/cu_lda_v1.2.uspp.F.UPF
     MD5 check sum: Not computed, couldn't open file
     Pseudo is Ultrasoft + core correction, Zval = 19.0
     Generated by new atomic code, or converted to UPF format
     Using radial grid of  867 points,  6 beta functions with: 
                l(1) =   0
                l(2) =   0
                l(3) =   1
                l(4) =   1
                l(5) =   2
                l(6) =   2
     Q(r) pseudized with  8 coefficients,  rinner =    1.150   1.150   1.150
                                                       1.150   1.150

     PseudoPot. # 4 for Cu read from file:
     ~/q-e/pseudo/gbrv_lda/cu_lda_v1.2.uspp.F.UPF
     MD5 check sum: Not computed, couldn't open file
     Pseudo is Ultrasoft + core correction, Zval = 19.0
     Generated by new atomic code, or converted to UPF format
     Using radial grid of  867 points,  6 beta functions with: 
                l(1) =   0
                l(2) =   0
                l(3) =   1
                l(4) =   1
                l(5) =   2
                l(6) =   2
     Q(r) pseudized with  8 coefficients,  rinner =    1.150   1.150   1.150
                                                       1.150   1.150

     PseudoPot. # 5 for Cu read from file:
     ~/q-e/pseudo/gbrv_lda/cu_lda_v1.2.uspp.F.UPF
     MD5 check sum: Not computed, couldn't open file
     Pseudo is Ultrasoft + core correction, Zval = 19.0
     Generated by new atomic code, or converted to UPF format
     Using radial grid of  867 points,  6 beta functions with: 
                l(1) =   0
                l(2) =   0
                l(3) =   1
                l(4) =   1
                l(5) =   2
                l(6) =   2
     Q(r) pseudized with  8 coefficients,  rinner =    1.150   1.150   1.150
                                                       1.150   1.150

     PseudoPot. # 6 for O  read from file:
     ~/q-e/pseudo/gbrv_lda/o_lda_v1.2.uspp.F.UPF
     MD5 check sum: Not computed, couldn't open file
     Pseudo is Ultrasoft + core correction, Zval =  6.0
     Generated by new atomic code, or converted to UPF format
     Using radial grid of  737 points,  5 beta functions with: 
                l(1) =   0
                l(2) =   0
                l(3) =   1
                l(4) =   1
                l(5) =   2
     Q(r) pseudized with  8 coefficients,  rinner =    0.900   0.900   0.900
                                                       0.900   0.900

     atomic species   valence    mass     pseudopotential
     Y                11.00    88.90584     Y ( 1.00)
     Ba               10.00   137.32700     Ba( 1.00)
     Cu               19.00    63.54600     Cu( 1.00)
     Cu1              19.00    63.54600     Cu( 1.00)
     Cu2              19.00    63.54600     Cu( 1.00)
     O                 6.00    15.99900     O ( 1.00)

     Starting magnetic structure 
     atomic species   magnetization
     Y               0.000
     Ba              0.000
     Cu              0.000
     Cu1             0.100
     Cu2            -0.100
     O               0.000

      8 Sym. Ops. (no inversion) found


                                    s                        frac. trans.

      isym =  1     identity                                     

 cryst.   s( 1) = (     1          0          0      )
                  (     0          1          0      )
                  (     0          0          1      )

 cart.    s( 1) = (  1.0000000  0.0000000  0.0000000 )
                  (  0.0000000  1.0000000  0.0000000 )
                  (  0.0000000  0.0000000  1.0000000 )


      isym =  2     180 deg rotation - cart. axis [0,0,1]        

 cryst.   s( 2) = (    -1          0          0      )
                  (     0         -1          0      )
                  (     0          0          1      )

 cart.    s( 2) = ( -1.0000000  0.0000000  0.0000000 )
                  (  0.0000000 -1.0000000  0.0000000 )
                  (  0.0000000  0.0000000  1.0000000 )


      isym =  3      90 deg rotation - cart. axis [0,0,-1]       

 cryst.   s( 3) = (     0         -1          0      )
                  (     1          0          0      )
                  (     0          0          1      )

 cart.    s( 3) = (  0.0000000  1.0000000  0.0000000 )
                  ( -1.0000000  0.0000000  0.0000000 )
                  (  0.0000000  0.0000000  1.0000000 )


      isym =  4      90 deg rotation - cart. axis [0,0,1]        

 cryst.   s( 4) = (     0          1          0      )
                  (    -1          0          0      )
                  (     0          0          1      )

 cart.    s( 4) = (  0.0000000 -1.0000000  0.0000000 )
                  (  1.0000000  0.0000000  0.0000000 )
                  (  0.0000000  0.0000000  1.0000000 )


      isym =  5     inv. 180 deg rotation - cart. axis [0,1,0]   

 cryst.   s( 5) = (     1          0          0      )
                  (     0         -1          0      )
                  (     0          0          1      )

 cart.    s( 5) = (  1.0000000  0.0000000  0.0000000 )
                  (  0.0000000 -1.0000000  0.0000000 )
                  (  0.0000000  0.0000000  1.0000000 )


      isym =  6     inv. 180 deg rotation - cart. axis [1,0,0]   

 cryst.   s( 6) = (    -1          0          0      )
                  (     0          1          0      )
                  (     0          0          1      )

 cart.    s( 6) = ( -1.0000000  0.0000000  0.0000000 )
                  (  0.0000000  1.0000000  0.0000000 )
                  (  0.0000000  0.0000000  1.0000000 )


      isym =  7     inv. 180 deg rotation - cart. axis [1,1,0]   

 cryst.   s( 7) = (     0         -1          0      )
                  (    -1          0          0      )
                  (     0          0          1      )

 cart.    s( 7) = (  0.0000000 -1.0000000  0.0000000 )
                  ( -1.0000000  0.0000000  0.0000000 )
                  (  0.0000000  0.0000000  1.0000000 )


      isym =  8     inv. 180 deg rotation - cart. axis [1,-1,0]  

 cryst.   s( 8) = (     0          1          0      )
                  (     1          0          0      )
                  (     0          0          1      )

 cart.    s( 8) = (  0.0000000  1.0000000  0.0000000 )
                  (  1.0000000  0.0000000  0.0000000 )
                  (  0.0000000  0.0000000  1.0000000 )


     point group C_4v (4mm) 
     there are  5 classes
     the character table:

       E     2C4   C2    2s_v  2s_d 
A_1    1.00  1.00  1.00  1.00  1.00
A_2    1.00  1.00  1.00 -1.00 -1.00
B_1    1.00 -1.00  1.00  1.00 -1.00
B_2    1.00 -1.00  1.00 -1.00  1.00
E      2.00  0.00 -2.00  0.00  0.00

     the symmetry operations in each class and the name of the first element:

     E        1
          identity                                               
     2C4      3    4
           90 deg rotation - cart. axis [0,0,-1]                 
     C2       2
          180 deg rotation - cart. axis [0,0,1]                  
     2s_v     5    6
          inv. 180 deg rotation - cart. axis [0,1,0]             
     2s_d     7    8
          inv. 180 deg rotation - cart. axis [1,1,0]             

   Cartesian axes

     site n.     atom                  positions (alat units)
         1        Y      tau(   1) = (   0.2500000   0.2500000   0.7624455  )
         2        Y      tau(   2) = (   0.2500000   0.7500000   0.7624455  )
         3        Y      tau(   3) = (   0.7500000   0.2500000   0.7624455  )
         4        Y      tau(   4) = (   0.7500000   0.7500000   0.7624455  )
         5        Ba     tau(   5) = (   0.2500000   0.2500000   0.2966571  )
         6        Ba     tau(   6) = (   0.2500000   0.2500000   1.2282339  )
         7        Ba     tau(   7) = (   0.2500000   0.7500000   0.2966571  )
         8        Ba     tau(   8) = (   0.2500000   0.7500000   1.2282339  )
         9        Ba     tau(   9) = (   0.7500000   0.2500000   0.2966571  )
        10        Ba     tau(  10) = (   0.7500000   0.2500000   1.2282339  )
        11        Ba     tau(  11) = (   0.7500000   0.7500000   0.2966571  )
        12        Ba     tau(  12) = (   0.7500000   0.7500000   1.2282339  )
        13        Cu     tau(  13) = (   0.0000000   0.0000000   0.0000000  )
        14        Cu1    tau(  14) = (   0.0000000   0.0000000   0.5526369  )
        15        Cu2    tau(  15) = (   0.0000000   0.0000000   0.9722541  )
        16        Cu     tau(  16) = (   0.0000000   0.5000000   0.0000000  )
        17        Cu2    tau(  17) = (   0.0000000   0.5000000   0.5526369  )
        18        Cu1    tau(  18) = (   0.0000000   0.5000000   0.9722541  )
        19        Cu     tau(  19) = (   0.5000000   0.0000000   0.0000000  )
        20        Cu2    tau(  20) = (   0.5000000   0.0000000   0.5526369  )
        21        Cu1    tau(  21) = (   0.5000000   0.0000000   0.9722541  )
        22        Cu     tau(  22) = (   0.5000000   0.5000000   0.0000000  )
        23        Cu1    tau(  23) = (   0.5000000   0.5000000   0.5526369  )
        24        Cu2    tau(  24) = (   0.5000000   0.5000000   0.9722541  )
        25        O      tau(  25) = (   0.0000000   0.0000000   0.2314064  )
        26        O      tau(  26) = (   0.0000000   0.0000000   1.2934846  )
        27        O      tau(  27) = (   0.5000000   0.0000000   0.2314064  )
        28        O      tau(  28) = (   0.5000000   0.0000000   1.2934846  )
        29        O      tau(  29) = (   0.0000000   0.5000000   0.2314064  )
        30        O      tau(  30) = (   0.0000000   0.5000000   1.2934846  )
        31        O      tau(  31) = (   0.5000000   0.5000000   0.2314064  )
        32        O      tau(  32) = (   0.5000000   0.5000000   1.2934846  )
        33        O      tau(  33) = (   0.2500000   0.0000000   0.5769788  )
        34        O      tau(  34) = (   0.2500000   0.0000000   0.9479122  )
        35        O      tau(  35) = (   0.2500000   0.5000000   0.5769788  )
        36        O      tau(  36) = (   0.2500000   0.5000000   0.9479122  )
        37        O      tau(  37) = (   0.7500000   0.0000000   0.5769788  )
        38        O      tau(  38) = (   0.7500000   0.0000000   0.9479122  )
        39        O      tau(  39) = (   0.7500000   0.5000000   0.5769788  )
        40        O      tau(  40) = (   0.7500000   0.5000000   0.9479122  )
        41        O      tau(  41) = (   0.0000000   0.2500000   0.5769788  )
        42        O      tau(  42) = (   0.0000000   0.2500000   0.9479122  )
        43        O      tau(  43) = (   0.5000000   0.2500000   0.5769788  )
        44        O      tau(  44) = (   0.5000000   0.2500000   0.9479122  )
        45        O      tau(  45) = (   0.0000000   0.7500000   0.5769788  )
        46        O      tau(  46) = (   0.0000000   0.7500000   0.9479122  )
        47        O      tau(  47) = (   0.5000000   0.7500000   0.5769788  )
        48        O      tau(  48) = (   0.5000000   0.7500000   0.9479122  )

   Crystallographic axes

     site n.     atom                  positions (cryst. coord.)
         1        Y      tau(   1) = (  0.2500000  0.2500000  0.5000000  )
         2        Y      tau(   2) = (  0.2500000  0.7500000  0.5000000  )
         3        Y      tau(   3) = (  0.7500000  0.2500000  0.5000000  )
         4        Y      tau(   4) = (  0.7500000  0.7500000  0.5000000  )
         5        Ba     tau(   5) = (  0.2500000  0.2500000  0.1945431  )
         6        Ba     tau(   6) = (  0.2500000  0.2500000  0.8054569  )
         7        Ba     tau(   7) = (  0.2500000  0.7500000  0.1945431  )
         8        Ba     tau(   8) = (  0.2500000  0.7500000  0.8054569  )
         9        Ba     tau(   9) = (  0.7500000  0.2500000  0.1945431  )
        10        Ba     tau(  10) = (  0.7500000  0.2500000  0.8054569  )
        11        Ba     tau(  11) = (  0.7500000  0.7500000  0.1945431  )
        12        Ba     tau(  12) = (  0.7500000  0.7500000  0.8054569  )
        13        Cu     tau(  13) = (  0.0000000  0.0000000  0.0000000  )
        14        Cu1    tau(  14) = (  0.0000000  0.0000000  0.3624108  )
        15        Cu2    tau(  15) = (  0.0000000  0.0000000  0.6375892  )
        16        Cu     tau(  16) = (  0.0000000  0.5000000  0.0000000  )
        17        Cu2    tau(  17) = (  0.0000000  0.5000000  0.3624108  )
        18        Cu1    tau(  18) = (  0.0000000  0.5000000  0.6375892  )
        19        Cu     tau(  19) = (  0.5000000  0.0000000  0.0000000  )
        20        Cu2    tau(  20) = (  0.5000000  0.0000000  0.3624108  )
        21        Cu1    tau(  21) = (  0.5000000  0.0000000  0.6375892  )
        22        Cu     tau(  22) = (  0.5000000  0.5000000  0.0000000  )
        23        Cu1    tau(  23) = (  0.5000000  0.5000000  0.3624108  )
        24        Cu2    tau(  24) = (  0.5000000  0.5000000  0.6375892  )
        25        O      tau(  25) = (  0.0000000  0.0000000  0.1517528  )
        26        O      tau(  26) = (  0.0000000  0.0000000  0.8482472  )
        27        O      tau(  27) = (  0.5000000  0.0000000  0.1517528  )
        28        O      tau(  28) = (  0.5000000  0.0000000  0.8482472  )
        29        O      tau(  29) = (  0.0000000  0.5000000  0.1517528  )
        30        O      tau(  30) = (  0.0000000  0.5000000  0.8482472  )
        31        O      tau(  31) = (  0.5000000  0.5000000  0.1517528  )
        32        O      tau(  32) = (  0.5000000  0.5000000  0.8482472  )
        33        O      tau(  33) = (  0.2500000  0.0000000  0.3783738  )
        34        O      tau(  34) = (  0.2500000  0.0000000  0.6216262  )
        35        O      tau(  35) = (  0.2500000  0.5000000  0.3783738  )
        36        O      tau(  36) = (  0.2500000  0.5000000  0.6216262  )
        37        O      tau(  37) = (  0.7500000  0.0000000  0.3783738  )
        38        O      tau(  38) = (  0.7500000  0.0000000  0.6216262  )
        39        O      tau(  39) = (  0.7500000  0.5000000  0.3783738  )
        40        O      tau(  40) = (  0.7500000  0.5000000  0.6216262  )
        41        O      tau(  41) = (  0.0000000  0.2500000  0.3783738  )
        42        O      tau(  42) = (  0.0000000  0.2500000  0.6216262  )
        43        O      tau(  43) = (  0.5000000  0.2500000  0.3783738  )
        44        O      tau(  44) = (  0.5000000  0.2500000  0.6216262  )
        45        O      tau(  45) = (  0.0000000  0.7500000  0.3783738  )
        46        O      tau(  46) = (  0.0000000  0.7500000  0.6216262  )
        47        O      tau(  47) = (  0.5000000  0.7500000  0.3783738  )
        48        O      tau(  48) = (  0.5000000  0.7500000  0.6216262  )

     number of k points=     6  Methfessel-Paxton smearing, width (Ry)=  0.0100
                       cart. coord. in units 2pi/alat
        k(    1) = (   0.0000000   0.0000000   0.0000000), wk =   0.1250000
        k(    2) = (   0.0000000   0.0000000  -0.3278923), wk =   0.1250000
        k(    3) = (   0.0000000  -0.5000000   0.0000000), wk =   0.2500000
        k(    4) = (   0.0000000  -0.5000000  -0.3278923), wk =   0.2500000
        k(    5) = (  -0.5000000  -0.5000000   0.0000000), wk =   0.1250000
        k(    6) = (  -0.5000000  -0.5000000  -0.3278923), wk =   0.1250000

                       cryst. coord.
        k(    1) = (   0.0000000   0.0000000   0.0000000), wk =   0.1250000
        k(    2) = (   0.0000000   0.0000000  -0.5000000), wk =   0.1250000
        k(    3) = (   0.0000000  -0.5000000   0.0000000), wk =   0.2500000
        k(    4) = (   0.0000000  -0.5000000  -0.5000000), wk =   0.2500000
        k(    5) = (  -0.5000000  -0.5000000   0.0000000), wk =   0.1250000
        k(    6) = (  -0.5000000  -0.5000000  -0.5000000), wk =   0.1250000

     Dense  grid:   954065 G-vectors     FFT dimensions: ( 108, 108, 162)

     Smooth grid:   282619 G-vectors     FFT dimensions: (  72,  72, 108)

     Dynamical RAM for                 wfc:      40.16 MB

     Dynamical RAM for     wfc (w. buffer):     522.14 MB

     Dynamical RAM for             U proj.:       5.39 MB

     Dynamical RAM for  U proj. (w. buff.):      70.09 MB

     Dynamical RAM for           str. fact:      21.84 MB

     Dynamical RAM for           local pot:       0.00 MB

     Dynamical RAM for          nlocal pot:     107.82 MB

     Dynamical RAM for                qrad:      20.88 MB

     Dynamical RAM for          rho,v,vnew:      43.73 MB

     Dynamical RAM for               rhoin:      14.58 MB

     Dynamical RAM for            rho*nmix:     116.46 MB

     Dynamical RAM for           G-vectors:      14.19 MB

     Dynamical RAM for          h,s,v(r/c):       4.07 MB

     Dynamical RAM for          <psi|beta>:       3.64 MB

     Dynamical RAM for                 psi:      80.33 MB

     Dynamical RAM for                hpsi:      80.33 MB

     Dynamical RAM for                spsi:      80.33 MB

     Dynamical RAM for      wfcinit/wfcrot:     113.79 MB

     Dynamical RAM for           addusdens:    1372.08 MB

     Estimated static dynamical RAM per process >     862.63 MB

     Estimated max dynamical RAM per process >       2.30 GB

     Estimated total dynamical RAM >       9.18 GB

     Check: negative core charge=   -0.000002
     Generating pointlists ...
     new r_m :   0.1284 (alat units)  1.8421 (a.u.) for type    1
     new r_m :   0.1483 (alat units)  2.1276 (a.u.) for type    2
     new r_m :   0.0955 (alat units)  1.3694 (a.u.) for type    3
     new r_m :   0.1036 (alat units)  1.4864 (a.u.) for type    4
     new r_m :   0.1036 (alat units)  1.4864 (a.u.) for type    5
     new r_m :   0.0955 (alat units)  1.3694 (a.u.) for type    6

     Initial potential from superposition of free atoms

     starting charge     483.8832, renormalised to     496.0000

     negative rho (up, down):  4.013E-01 4.013E-01

     HUBBARD ENERGY =    0.8820  (Ry)

     STARTING HUBBARD OCCUPATIONS:

     =================== HUBBARD OCCUPATIONS ===================
     ------------------------ ATOM   14 ------------------------
     Tr[ns( 14)] (up, down, total) =   5.00000  3.00000  8.00000
     Atomic magnetic moment for atom  14 =   2.00000
     SPIN  1
     eigenvalues:
       1.000  1.000  1.000  1.000  1.000
     eigenvectors (columns):
       1.000  0.000  0.000  0.000  0.000
       0.000  1.000  0.000  0.000  0.000
       0.000  0.000  1.000  0.000  0.000
       0.000  0.000  0.000  1.000  0.000
       0.000  0.000  0.000  0.000  1.000
     occupation matrix ns (before diag.):
       1.000  0.000  0.000  0.000  0.000
       0.000  1.000  0.000  0.000  0.000
       0.000  0.000  1.000  0.000  0.000
       0.000  0.000  0.000  1.000  0.000
       0.000  0.000  0.000  0.000  1.000
     SPIN  2
     eigenvalues:
       0.600  0.600  0.600  0.600  0.600
     eigenvectors (columns):
       1.000  0.000  0.000  0.000  0.000
       0.000  1.000  0.000  0.000  0.000
       0.000  0.000  1.000  0.000  0.000
       0.000  0.000  0.000  1.000  0.000
       0.000  0.000  0.000  0.000  1.000
     occupation matrix ns (before diag.):
       0.600  0.000  0.000  0.000  0.000
       0.000  0.600  0.000  0.000  0.000
       0.000  0.000  0.600  0.000  0.000
       0.000  0.000  0.000  0.600  0.000
       0.000  0.000  0.000  0.000  0.600
     ------------------------ ATOM   15 ------------------------
     Tr[ns( 15)] (up, down, total) =   3.00000  5.00000  8.00000
     Atomic magnetic moment for atom  15 =  -2.00000
     SPIN  1
     eigenvalues:
       0.600  0.600  0.600  0.600  0.600
     eigenvectors (columns):
       1.000  0.000  0.000  0.000  0.000
       0.000  1.000  0.000  0.000  0.000
       0.000  0.000  1.000  0.000  0.000
       0.000  0.000  0.000  1.000  0.000
       0.000  0.000  0.000  0.000  1.000
     occupation matrix ns (before diag.):
       0.600  0.000  0.000  0.000  0.000
       0.000  0.600  0.000  0.000  0.000
       0.000  0.000  0.600  0.000  0.000
       0.000  0.000  0.000  0.600  0.000
       0.000  0.000  0.000  0.000  0.600
     SPIN  2
     eigenvalues:
       1.000  1.000  1.000  1.000  1.000
     eigenvectors (columns):
       1.000  0.000  0.000  0.000  0.000
       0.000  1.000  0.000  0.000  0.000
       0.000  0.000  1.000  0.000  0.000
       0.000  0.000  0.000  1.000  0.000
       0.000  0.000  0.000  0.000  1.000
     occupation matrix ns (before diag.):
       1.000  0.000  0.000  0.000  0.000
       0.000  1.000  0.000  0.000  0.000
       0.000  0.000  1.000  0.000  0.000
       0.000  0.000  0.000  1.000  0.000
       0.000  0.000  0.000  0.000  1.000
     ------------------------ ATOM   17 ------------------------
     Tr[ns( 17)] (up, down, total) =   3.00000  5.00000  8.00000
     Atomic magnetic moment for atom  17 =  -2.00000
     SPIN  1
     eigenvalues:
       0.600  0.600  0.600  0.600  0.600
     eigenvectors (columns):
       1.000  0.000  0.000  0.000  0.000
       0.000  1.000  0.000  0.000  0.000
       0.000  0.000  1.000  0.000  0.000
       0.000  0.000  0.000  1.000  0.000
       0.000  0.000  0.000  0.000  1.000
     occupation matrix ns (before diag.):
       0.600  0.000  0.000  0.000  0.000
       0.000  0.600  0.000  0.000  0.000
       0.000  0.000  0.600  0.000  0.000
       0.000  0.000  0.000  0.600  0.000
       0.000  0.000  0.000  0.000  0.600
     SPIN  2
     eigenvalues:
       1.000  1.000  1.000  1.000  1.000
     eigenvectors (columns):
       1.000  0.000  0.000  0.000  0.000
       0.000  1.000  0.000  0.000  0.000
       0.000  0.000  1.000  0.000  0.000
       0.000  0.000  0.000  1.000  0.000
       0.000  0.000  0.000  0.000  1.000
     occupation matrix ns (before diag.):
       1.000  0.000  0.000  0.000  0.000
       0.000  1.000  0.000  0.000  0.000
       0.000  0.000  1.000  0.000  0.000
       0.000  0.000  0.000  1.000  0.000
       0.000  0.000  0.000  0.000  1.000
     ------------------------ ATOM   18 ------------------------
     Tr[ns( 18)] (up, down, total) =   5.00000  3.00000  8.00000
     Atomic magnetic moment for atom  18 =   2.00000
     SPIN  1
     eigenvalues:
       1.000  1.000  1.000  1.000  1.000
     eigenvectors (columns):
       1.000  0.000  0.000  0.000  0.000
       0.000  1.000  0.000  0.000  0.000
       0.000  0.000  1.000  0.000  0.000
       0.000  0.000  0.000  1.000  0.000
       0.000  0.000  0.000  0.000  1.000
     occupation matrix ns (before diag.):
       1.000  0.000  0.000  0.000  0.000
       0.000  1.000  0.000  0.000  0.000
       0.000  0.000  1.000  0.000  0.000
       0.000  0.000  0.000  1.000  0.000
       0.000  0.000  0.000  0.000  1.000
     SPIN  2
     eigenvalues:
       0.600  0.600  0.600  0.600  0.600
     eigenvectors (columns):
       1.000  0.000  0.000  0.000  0.000
       0.000  1.000  0.000  0.000  0.000
       0.000  0.000  1.000  0.000  0.000
       0.000  0.000  0.000  1.000  0.000
       0.000  0.000  0.000  0.000  1.000
     occupation matrix ns (before diag.):
       0.600  0.000  0.000  0.000  0.000
       0.000  0.600  0.000  0.000  0.000
       0.000  0.000  0.600  0.000  0.000
       0.000  0.000  0.000  0.600  0.000
       0.000  0.000  0.000  0.000  0.600
     ------------------------ ATOM   20 ------------------------
     Tr[ns( 20)] (up, down, total) =   3.00000  5.00000  8.00000
     Atomic magnetic moment for atom  20 =  -2.00000
     SPIN  1
     eigenvalues:
       0.600  0.600  0.600  0.600  0.600
     eigenvectors (columns):
       1.000  0.000  0.000  0.000  0.000
       0.000  1.000  0.000  0.000  0.000
       0.000  0.000  1.000  0.000  0.000
       0.000  0.000  0.000  1.000  0.000
       0.000  0.000  0.000  0.000  1.000
     occupation matrix ns (before diag.):
       0.600  0.000  0.000  0.000  0.000
       0.000  0.600  0.000  0.000  0.000
       0.000  0.000  0.600  0.000  0.000
       0.000  0.000  0.000  0.600  0.000
       0.000  0.000  0.000  0.000  0.600
     SPIN  2
     eigenvalues:
       1.000  1.000  1.000  1.000  1.000
     eigenvectors (columns):
       1.000  0.000  0.000  0.000  0.000
       0.000  1.000  0.000  0.000  0.000
       0.000  0.000  1.000  0.000  0.000
       0.000  0.000  0.000  1.000  0.000
       0.000  0.000  0.000  0.000  1.000
     occupation matrix ns (before diag.):
       1.000  0.000  0.000  0.000  0.000
       0.000  1.000  0.000  0.000  0.000
       0.000  0.000  1.000  0.000  0.000
       0.000  0.000  0.000  1.000  0.000
       0.000  0.000  0.000  0.000  1.000
     ------------------------ ATOM   21 ------------------------
     Tr[ns( 21)] (up, down, total) =   5.00000  3.00000  8.00000
     Atomic magnetic moment for atom  21 =   2.00000
     SPIN  1
     eigenvalues:
       1.000  1.000  1.000  1.000  1.000
     eigenvectors (columns):
       1.000  0.000  0.000  0.000  0.000
       0.000  1.000  0.000  0.000  0.000
       0.000  0.000  1.000  0.000  0.000
       0.000  0.000  0.000  1.000  0.000
       0.000  0.000  0.000  0.000  1.000
     occupation matrix ns (before diag.):
       1.000  0.000  0.000  0.000  0.000
       0.000  1.000  0.000  0.000  0.000
       0.000  0.000  1.000  0.000  0.000
       0.000  0.000  0.000  1.000  0.000
       0.000  0.000  0.000  0.000  1.000
     SPIN  2
     eigenvalues:
       0.600  0.600  0.600  0.600  0.600
     eigenvectors (columns):
       1.000  0.000  0.000  0.000  0.000
       0.000  1.000  0.000  0.000  0.000
       0.000  0.000  1.000  0.000  0.000
       0.000  0.000  0.000  1.000  0.000
       0.000  0.000  0.000  0.000  1.000
     occupation matrix ns (before diag.):
       0.600  0.000  0.000  0.000  0.000
       0.000  0.600  0.000  0.000  0.000
       0.000  0.000  0.600  0.000  0.000
       0.000  0.000  0.000  0.600  0.000
       0.000  0.000  0.000  0.000  0.600
     ------------------------ ATOM   23 ------------------------
     Tr[ns( 23)] (up, down, total) =   5.00000  3.00000  8.00000
     Atomic magnetic moment for atom  23 =   2.00000
     SPIN  1
     eigenvalues:
       1.000  1.000  1.000  1.000  1.000
     eigenvectors (columns):
       1.000  0.000  0.000  0.000  0.000
       0.000  1.000  0.000  0.000  0.000
       0.000  0.000  1.000  0.000  0.000
       0.000  0.000  0.000  1.000  0.000
       0.000  0.000  0.000  0.000  1.000
     occupation matrix ns (before diag.):
       1.000  0.000  0.000  0.000  0.000
       0.000  1.000  0.000  0.000  0.000
       0.000  0.000  1.000  0.000  0.000
       0.000  0.000  0.000  1.000  0.000
       0.000  0.000  0.000  0.000  1.000
     SPIN  2
     eigenvalues:
       0.600  0.600  0.600  0.600  0.600
     eigenvectors (columns):
       1.000  0.000  0.000  0.000  0.000
       0.000  1.000  0.000  0.000  0.000
       0.000  0.000  1.000  0.000  0.000
       0.000  0.000  0.000  1.000  0.000
       0.000  0.000  0.000  0.000  1.000
     occupation matrix ns (before diag.):
       0.600  0.000  0.000  0.000  0.000
       0.000  0.600  0.000  0.000  0.000
       0.000  0.000  0.600  0.000  0.000
       0.000  0.000  0.000  0.600  0.000
       0.000  0.000  0.000  0.000  0.600
     ------------------------ ATOM   24 ------------------------
     Tr[ns( 24)] (up, down, total) =   3.00000  5.00000  8.00000
     Atomic magnetic moment for atom  24 =  -2.00000
     SPIN  1
     eigenvalues:
       0.600  0.600  0.600  0.600  0.600
     eigenvectors (columns):
       1.000  0.000  0.000  0.000  0.000
       0.000  1.000  0.000  0.000  0.000
       0.000  0.000  1.000  0.000  0.000
       0.000  0.000  0.000  1.000  0.000
       0.000  0.000  0.000  0.000  1.000
     occupation matrix ns (before diag.):
       0.600  0.000  0.000  0.000  0.000
       0.000  0.600  0.000  0.000  0.000
       0.000  0.000  0.600  0.000  0.000
       0.000  0.000  0.000  0.600  0.000
       0.000  0.000  0.000  0.000  0.600
     SPIN  2
     eigenvalues:
       1.000  1.000  1.000  1.000  1.000
     eigenvectors (columns):
       1.000  0.000  0.000  0.000  0.000
       0.000  1.000  0.000  0.000  0.000
       0.000  0.000  1.000  0.000  0.000
       0.000  0.000  0.000  1.000  0.000
       0.000  0.000  0.000  0.000  1.000
     occupation matrix ns (before diag.):
       1.000  0.000  0.000  0.000  0.000
       0.000  1.000  0.000  0.000  0.000
       0.000  0.000  1.000  0.000  0.000
       0.000  0.000  0.000  1.000  0.000
       0.000  0.000  0.000  0.000  1.000

     Number of occupied Hubbard levels =   64.0000

     Atomic wfc used for Hubbard projectors are orthogonalized

     Starting wfcs are  408 randomized atomic wfcs

     total cpu time spent up to now is       57.8 secs

     Self-consistent Calculation

     iteration #  1     ecut=    60.00 Ry     beta= 0.10
     Davidson diagonalization with overlap

---- Real-time Memory Report at c_bands before calling an iterative solver
          1547 MiB given to the printing process from OS
             0 MiB allocation reported by mallinfo(arena+hblkhd)
          4656 MiB available memory on the node where the printing process lives
------------------
     ethr =  1.00E-02,  avg # of iterations =  2.0

     =================== HUBBARD OCCUPATIONS ===================
     ------------------------ ATOM   14 ------------------------
     Tr[ns( 14)] (up, down, total) =   4.86324  4.11521  8.97845
     Atomic magnetic moment for atom  14 =   0.74803
     SPIN  1
     eigenvalues:
       0.954  0.957  0.982  0.982  0.988
     eigenvectors (columns):
      -0.000  1.000  0.000  0.000  0.000
      -0.000  0.000 -0.319 -0.948  0.000
      -0.000  0.000 -0.948  0.319  0.000
       1.000  0.000 -0.000 -0.000 -0.000
       0.000 -0.000  0.000  0.000  1.000
     occupation matrix ns (before diag.):
       0.957 -0.000 -0.000  0.000  0.000
      -0.000  0.982 -0.000  0.000  0.000
      -0.000 -0.000  0.982  0.000  0.000
       0.000  0.000  0.000  0.954 -0.000
       0.000  0.000  0.000 -0.000  0.988
     SPIN  2
     eigenvalues:
       0.328  0.883  0.963  0.963  0.977
     eigenvectors (columns):
       0.000  1.000 -0.000 -0.000  0.000
      -0.000  0.000  0.369  0.929  0.000
      -0.000  0.000  0.929 -0.369  0.000
       1.000  0.000  0.000  0.000 -0.000
       0.000 -0.000 -0.000 -0.000  1.000
     occupation matrix ns (before diag.):
       0.883 -0.000 -0.000 -0.000  0.000
      -0.000  0.963 -0.000  0.000  0.000
      -0.000 -0.000  0.963  0.000  0.000
      -0.000  0.000  0.000  0.328 -0.000
       0.000  0.000  0.000 -0.000  0.977
     ------------------------ ATOM   15 ------------------------
     Tr[ns( 15)] (up, down, total) =   4.11525  4.86320  8.97846
     Atomic magnetic moment for atom  15 =  -0.74795
     SPIN  1
     eigenvalues:
       0.328  0.883  0.963  0.963  0.978
     eigenvectors (columns):
       0.000  1.000 -0.000 -0.000  0.000
      -0.000  0.000  0.355  0.935  0.000
      -0.000  0.000  0.935 -0.355  0.000
       1.000 -0.000  0.000  0.000 -0.000
       0.000 -0.000 -0.000 -0.000  1.000
     occupation matrix ns (before diag.):
       0.883 -0.000 -0.000 -0.000  0.000
      -0.000  0.963 -0.000  0.000  0.000
      -0.000 -0.000  0.963  0.000  0.000
      -0.000  0.000  0.000  0.328 -0.000
       0.000  0.000  0.000 -0.000  0.978
     SPIN  2
     eigenvalues:
       0.954  0.957  0.982  0.982  0.988
     eigenvectors (columns):
      -0.000  1.000  0.000  0.000  0.000
      -0.000  0.000 -0.340 -0.941  0.000
      -0.000  0.000 -0.941  0.340  0.000
       1.000  0.000 -0.000 -0.000 -0.000
       0.000 -0.000  0.000  0.000  1.000
     occupation matrix ns (before diag.):
       0.957 -0.000 -0.000  0.000  0.000
      -0.000  0.982 -0.000  0.000  0.000
      -0.000 -0.000  0.982  0.000  0.000
       0.000  0.000  0.000  0.954 -0.000
       0.000  0.000  0.000 -0.000  0.988
     ------------------------ ATOM   17 ------------------------
     Tr[ns( 17)] (up, down, total) =   4.11527  4.86320  8.97847
     Atomic magnetic moment for atom  17 =  -0.74793
     SPIN  1
     eigenvalues:
       0.328  0.883  0.963  0.963  0.978
     eigenvectors (columns):
      -0.000  1.000 -0.000 -0.000  0.000
      -0.000  0.000  0.000  1.000  0.000
      -0.000  0.000  1.000 -0.000  0.000
       1.000  0.000  0.000  0.000 -0.000
       0.000 -0.000 -0.000 -0.000  1.000
     occupation matrix ns (before diag.):
       0.883 -0.000 -0.000  0.000  0.000
      -0.000  0.963 -0.000  0.000  0.000
      -0.000 -0.000  0.963  0.000  0.000
       0.000  0.000  0.000  0.328 -0.000
       0.000  0.000  0.000 -0.000  0.978
     SPIN  2
     eigenvalues:
       0.954  0.957  0.982  0.982  0.988
     eigenvectors (columns):
       0.000  1.000  0.000  0.000  0.000
      -0.000  0.000 -1.000  0.000  0.000
      -0.000  0.000 -0.000 -1.000  0.000
       1.000 -0.000 -0.000 -0.000 -0.000
       0.000 -0.000  0.000  0.000  1.000
     occupation matrix ns (before diag.):
       0.957 -0.000 -0.000 -0.000  0.000
      -0.000  0.982 -0.000  0.000  0.000
      -0.000 -0.000  0.982  0.000  0.000
      -0.000  0.000  0.000  0.954 -0.000
       0.000  0.000  0.000 -0.000  0.988
     ------------------------ ATOM   18 ------------------------
     Tr[ns( 18)] (up, down, total) =   4.86325  4.11528  8.97853
     Atomic magnetic moment for atom  18 =   0.74798
     SPIN  1
     eigenvalues:
       0.954  0.957  0.982  0.982  0.988
     eigenvectors (columns):
      -0.001  1.000  0.000  0.000  0.000
      -0.000  0.000 -0.000 -1.000  0.000
      -0.000  0.000 -1.000  0.000  0.000
       1.000  0.001 -0.000 -0.000 -0.000
       0.000 -0.000  0.000  0.000  1.000
     occupation matrix ns (before diag.):
       0.957 -0.000 -0.000  0.000  0.000
      -0.000  0.982 -0.000  0.000  0.000
      -0.000 -0.000  0.982  0.000  0.000
       0.000  0.000  0.000  0.954 -0.000
       0.000  0.000  0.000 -0.000  0.988
     SPIN  2
     eigenvalues:
       0.328  0.883  0.963  0.963  0.978
     eigenvectors (columns):
       0.000  1.000 -0.000 -0.000  0.000
      -0.000  0.000  0.000  1.000  0.000
      -0.000  0.000  1.000 -0.000  0.000
       1.000 -0.000  0.000  0.000 -0.000
       0.000 -0.000 -0.000 -0.000  1.000
     occupation matrix ns (before diag.):
       0.883 -0.000 -0.000 -0.000  0.000
      -0.000  0.963 -0.000  0.000  0.000
      -0.000 -0.000  0.963  0.000  0.000
      -0.000  0.000  0.000  0.328 -0.000
       0.000  0.000  0.000 -0.000  0.978
     ------------------------ ATOM   20 ------------------------
     Tr[ns( 20)] (up, down, total) =   4.11527  4.86320  8.97847
     Atomic magnetic moment for atom  20 =  -0.74793
     SPIN  1
     eigenvalues:
       0.328  0.883  0.963  0.963  0.978
     eigenvectors (columns):
       0.000  1.000 -0.000 -0.000  0.000
      -0.000  0.000  1.000 -0.000  0.000
      -0.000  0.000  0.000  1.000  0.000
       1.000 -0.000  0.000  0.000 -0.000
       0.000 -0.000 -0.000 -0.000  1.000
     occupation matrix ns (before diag.):
       0.883 -0.000 -0.000 -0.000  0.000
      -0.000  0.963 -0.000  0.000  0.000
      -0.000 -0.000  0.963  0.000  0.000
      -0.000  0.000  0.000  0.328 -0.000
       0.000  0.000  0.000 -0.000  0.978
     SPIN  2
     eigenvalues:
       0.954  0.957  0.982  0.982  0.988
     eigenvectors (columns):
      -0.000  1.000  0.000  0.000  0.000
      -0.000  0.000 -0.000 -1.000  0.000
      -0.000  0.000 -1.000  0.000  0.000
       1.000  0.000 -0.000 -0.000 -0.000
       0.000 -0.000  0.000  0.000  1.000
     occupation matrix ns (before diag.):
       0.957 -0.000 -0.000  0.000  0.000
      -0.000  0.982 -0.000  0.000  0.000
      -0.000 -0.000  0.982  0.000  0.000
       0.000  0.000  0.000  0.954 -0.000
       0.000  0.000  0.000 -0.000  0.988
     ------------------------ ATOM   21 ------------------------
     Tr[ns( 21)] (up, down, total) =   4.86325  4.11528  8.97853
     Atomic magnetic moment for atom  21 =   0.74798
     SPIN  1
     eigenvalues:
       0.954  0.957  0.982  0.982  0.988
     eigenvectors (columns):
       0.001  1.000  0.000  0.000  0.000
      -0.000  0.000 -1.000  0.000  0.000
      -0.000  0.000 -0.000 -1.000  0.000
       1.000 -0.001 -0.000 -0.000 -0.000
       0.000 -0.000  0.000  0.000  1.000
     occupation matrix ns (before diag.):
       0.957 -0.000 -0.000 -0.000  0.000
      -0.000  0.982 -0.000  0.000  0.000
      -0.000 -0.000  0.982  0.000  0.000
      -0.000  0.000  0.000  0.954 -0.000
       0.000  0.000  0.000 -0.000  0.988
     SPIN  2
     eigenvalues:
       0.328  0.883  0.963  0.963  0.978
     eigenvectors (columns):
      -0.000  1.000 -0.000 -0.000  0.000
      -0.000  0.000  1.000 -0.000  0.000
      -0.000  0.000  0.000  1.000  0.000
       1.000  0.000  0.000  0.000 -0.000
       0.000 -0.000 -0.000 -0.000  1.000
     occupation matrix ns (before diag.):
       0.883 -0.000 -0.000  0.000  0.000
      -0.000  0.963 -0.000  0.000  0.000
      -0.000 -0.000  0.963  0.000  0.000
       0.000  0.000  0.000  0.328 -0.000
       0.000  0.000  0.000 -0.000  0.978
     ------------------------ ATOM   23 ------------------------
     Tr[ns( 23)] (up, down, total) =   4.86321  4.11510  8.97832
     Atomic magnetic moment for atom  23 =   0.74811
     SPIN  1
     eigenvalues:
       0.954  0.957  0.982  0.982  0.988
     eigenvectors (columns):
      -0.000  1.000  0.000  0.000  0.000
      -0.000  0.000 -0.336 -0.942  0.000
      -0.000  0.000 -0.942  0.336  0.000
       1.000  0.000 -0.000 -0.000 -0.000
       0.000 -0.000  0.000  0.000  1.000
     occupation matrix ns (before diag.):
       0.957 -0.000 -0.000  0.000  0.000
      -0.000  0.982 -0.000  0.000  0.000
      -0.000 -0.000  0.982  0.000  0.000
       0.000  0.000  0.000  0.954 -0.000
       0.000  0.000  0.000 -0.000  0.988
     SPIN  2
     eigenvalues:
       0.328  0.883  0.963  0.963  0.978
     eigenvectors (columns):
       0.000  1.000 -0.000 -0.000  0.000
      -0.000  0.000  0.334  0.942  0.000
      -0.000  0.000  0.942 -0.334  0.000
       1.000 -0.000  0.000  0.000 -0.000
       0.000 -0.000 -0.000 -0.000  1.000
     occupation matrix ns (before diag.):
       0.883 -0.000 -0.000 -0.000  0.000
      -0.000  0.963 -0.000  0.000  0.000
      -0.000 -0.000  0.963  0.000  0.000
      -0.000  0.000  0.000  0.328 -0.000
       0.000  0.000  0.000 -0.000  0.978
     ------------------------ ATOM   24 ------------------------
     Tr[ns( 24)] (up, down, total) =   4.11514  4.86326  8.97841
     Atomic magnetic moment for atom  24 =  -0.74812
     SPIN  1
     eigenvalues:
       0.328  0.883  0.963  0.963  0.978
     eigenvectors (columns):
       0.000  1.000 -0.000 -0.000  0.000
      -0.000  0.000  0.367  0.930  0.000
      -0.000  0.000  0.930 -0.367  0.000
       1.000 -0.000  0.000  0.000 -0.000
       0.000 -0.000 -0.000 -0.000  1.000
     occupation matrix ns (before diag.):
       0.883 -0.000 -0.000 -0.000  0.000
      -0.000  0.963 -0.000  0.000  0.000
      -0.000 -0.000  0.963  0.000  0.000
      -0.000  0.000  0.000  0.328 -0.000
       0.000  0.000  0.000 -0.000  0.978
     SPIN  2
     eigenvalues:
       0.954  0.957  0.982  0.982  0.988
     eigenvectors (columns):
      -0.000  1.000  0.000  0.000  0.000
      -0.000  0.000 -0.333 -0.943  0.000
      -0.000  0.000 -0.943  0.333  0.000
       1.000  0.000 -0.000 -0.000 -0.000
       0.000 -0.000  0.000  0.000  1.000
     occupation matrix ns (before diag.):
       0.957 -0.000 -0.000  0.000  0.000
      -0.000  0.982 -0.000  0.000  0.000
      -0.000 -0.000  0.982  0.000  0.000
       0.000  0.000  0.000  0.954 -0.000
       0.000  0.000  0.000 -0.000  0.988

     Number of occupied Hubbard levels =   71.8276

     negative rho (up, down):  3.965E-01 3.965E-01

     HUBBARD ENERGY =    0.4029  (Ry)

     total cpu time spent up to now is      165.5 secs

     total energy              =   -6555.21574558 Ry
     estimated scf accuracy    <       7.51472515 Ry

     total magnetization       =    -0.00 Bohr mag/cell
     absolute magnetization    =     7.56 Bohr mag/cell

     iteration #  2     ecut=    60.00 Ry     beta= 0.10
     Davidson diagonalization with overlap

---- Real-time Memory Report at c_bands before calling an iterative solver
          2388 MiB given to the printing process from OS
             0 MiB allocation reported by mallinfo(arena+hblkhd)
          5567 MiB available memory on the node where the printing process lives
------------------
     ethr =  1.52E-03,  avg # of iterations =  1.8

     =================== HUBBARD OCCUPATIONS ===================
     ------------------------ ATOM   14 ------------------------
     Tr[ns( 14)] (up, down, total) =   4.87183  4.18321  9.05504
     Atomic magnetic moment for atom  14 =   0.68862
     SPIN  1
     eigenvalues:
       0.961  0.961  0.982  0.982  0.987
     eigenvectors (columns):
       0.000  1.000  0.000  0.000  0.000
      -0.000  0.000 -0.352 -0.936  0.000
      -0.000  0.000 -0.936  0.352  0.000
       1.000 -0.000 -0.000 -0.000 -0.000
       0.000 -0.000  0.000  0.000  1.000
     occupation matrix ns (before diag.):
       0.961 -0.000 -0.000  0.000  0.000
      -0.000  0.982 -0.000  0.000  0.000
      -0.000 -0.000  0.982  0.000  0.000
       0.000  0.000  0.000  0.961 -0.000
       0.000  0.000  0.000 -0.000  0.987
     SPIN  2
     eigenvalues:
       0.339  0.926  0.970  0.970  0.978
     eigenvectors (columns):
      -0.000 -1.000 -0.000 -0.000  0.000
       0.000 -0.000  0.320  0.948  0.000
       0.000 -0.000  0.948 -0.320  0.000
      -1.000  0.000  0.000  0.000 -0.000
      -0.000  0.000 -0.000 -0.000  1.000
     occupation matrix ns (before diag.):
       0.926 -0.000 -0.000 -0.000  0.000
      -0.000  0.970 -0.000  0.000  0.000
      -0.000 -0.000  0.970  0.000  0.000
      -0.000  0.000  0.000  0.339 -0.000
       0.000  0.000  0.000 -0.000  0.978
     ------------------------ ATOM   15 ------------------------
     Tr[ns( 15)] (up, down, total) =   4.18327  4.87177  9.05505
     Atomic magnetic moment for atom  15 =  -0.68850
     SPIN  1
     eigenvalues:
       0.339  0.926  0.970  0.970  0.978
     eigenvectors (columns):
       0.000 -1.000 -0.000 -0.000  0.000
       0.000 -0.000  0.313  0.950  0.000
       0.000 -0.000  0.950 -0.313  0.000
      -1.000 -0.000  0.000  0.000 -0.000
      -0.000  0.000 -0.000 -0.000  1.000
     occupation matrix ns (before diag.):
       0.926 -0.000 -0.000 -0.000  0.000
      -0.000  0.970 -0.000  0.000  0.000
      -0.000 -0.000  0.970  0.000  0.000
      -0.000  0.000  0.000  0.339 -0.000
       0.000  0.000  0.000 -0.000  0.978
     SPIN  2
     eigenvalues:
       0.961  0.961  0.982  0.982  0.987
     eigenvectors (columns):
      -0.000  1.000  0.000  0.000  0.000
      -0.000  0.000 -0.343 -0.939  0.000
      -0.000  0.000 -0.939  0.343  0.000
       1.000  0.000 -0.000 -0.000 -0.000
       0.000 -0.000  0.000  0.000  1.000
     occupation matrix ns (before diag.):
       0.961 -0.000 -0.000  0.000  0.000
      -0.000  0.982 -0.000  0.000  0.000
      -0.000 -0.000  0.982  0.000  0.000
       0.000  0.000  0.000  0.961 -0.000
       0.000  0.000  0.000 -0.000  0.987
     ------------------------ ATOM   17 ------------------------
     Tr[ns( 17)] (up, down, total) =   4.18325  4.87178  9.05503
     Atomic magnetic moment for atom  17 =  -0.68853
     SPIN  1
     eigenvalues:
       0.339  0.926  0.970  0.970  0.978
     eigenvectors (columns):
       0.000 -1.000 -0.000 -0.000  0.000
       0.000 -0.000  0.000  1.000  0.000
       0.000 -0.000  1.000 -0.000  0.000
      -1.000 -0.000  0.000  0.000 -0.000
      -0.000  0.000 -0.000 -0.000  1.000
     occupation matrix ns (before diag.):
       0.926 -0.000 -0.000  0.000  0.000
      -0.000  0.970 -0.000  0.000  0.000
      -0.000 -0.000  0.970  0.000  0.000
       0.000  0.000  0.000  0.339 -0.000
       0.000  0.000  0.000 -0.000  0.978
     SPIN  2
     eigenvalues:
       0.961  0.961  0.982  0.982  0.987
     eigenvectors (columns):
       0.005  1.000  0.000  0.000  0.000
      -0.000  0.000 -1.000  0.000  0.000
      -0.000  0.000 -0.000 -1.000  0.000
       1.000 -0.005 -0.000 -0.000 -0.000
       0.000 -0.000  0.000  0.000  1.000
     occupation matrix ns (before diag.):
       0.961 -0.000 -0.000 -0.000  0.000
      -0.000  0.982 -0.000  0.000  0.000
      -0.000 -0.000  0.982  0.000  0.000
      -0.000  0.000  0.000  0.961 -0.000
       0.000  0.000  0.000 -0.000  0.987
     ------------------------ ATOM   18 ------------------------
     Tr[ns( 18)] (up, down, total) =   4.87177  4.18321  9.05497
     Atomic magnetic moment for atom  18 =   0.68856
     SPIN  1
     eigenvalues:
       0.961  0.961  0.982  0.982  0.987
     eigenvectors (columns):
       0.003  1.000  0.000  0.000  0.000
      -0.000  0.000 -0.000 -1.000  0.000
      -0.000  0.000 -1.000  0.000  0.000
       1.000 -0.003 -0.000 -0.000 -0.000
       0.000 -0.000  0.000  0.000  1.000
     occupation matrix ns (before diag.):
       0.961 -0.000 -0.000 -0.000  0.000
      -0.000  0.982 -0.000  0.000  0.000
      -0.000 -0.000  0.982  0.000  0.000
      -0.000  0.000  0.000  0.961 -0.000
       0.000  0.000  0.000 -0.000  0.987
     SPIN  2
     eigenvalues:
       0.339  0.926  0.970  0.970  0.978
     eigenvectors (columns):
      -0.000 -1.000 -0.000 -0.000  0.000
       0.000 -0.000  0.000  1.000  0.000
       0.000 -0.000  1.000 -0.000  0.000
      -1.000  0.000  0.000  0.000 -0.000
      -0.000  0.000 -0.000 -0.000  1.000
     occupation matrix ns (before diag.):
       0.926 -0.000 -0.000 -0.000  0.000
      -0.000  0.970 -0.000  0.000  0.000
      -0.000 -0.000  0.970  0.000  0.000
      -0.000  0.000  0.000  0.339 -0.000
       0.000  0.000  0.000 -0.000  0.978
     ------------------------ ATOM   20 ------------------------
     Tr[ns( 20)] (up, down, total) =   4.18325  4.87178  9.05503
     Atomic magnetic moment for atom  20 =  -0.68853
     SPIN  1
     eigenvalues:
       0.339  0.926  0.970  0.970  0.978
     eigenvectors (columns):
      -0.000 -1.000 -0.000 -0.000  0.000
       0.000 -0.000  1.000 -0.000  0.000
       0.000 -0.000  0.000  1.000  0.000
      -1.000  0.000  0.000  0.000 -0.000
      -0.000  0.000 -0.000 -0.000  1.000
     occupation matrix ns (before diag.):
       0.926 -0.000 -0.000 -0.000  0.000
      -0.000  0.970 -0.000  0.000  0.000
      -0.000 -0.000  0.970  0.000  0.000
      -0.000  0.000  0.000  0.339 -0.000
       0.000  0.000  0.000 -0.000  0.978
     SPIN  2
     eigenvalues:
       0.961  0.961  0.982  0.982  0.987
     eigenvectors (columns):
      -0.005  1.000  0.000  0.000  0.000
      -0.000  0.000 -0.000 -1.000  0.000
      -0.000  0.000 -1.000  0.000  0.000
       1.000  0.005 -0.000 -0.000 -0.000
       0.000 -0.000  0.000  0.000  1.000
     occupation matrix ns (before diag.):
       0.961 -0.000 -0.000  0.000  0.000
      -0.000  0.982 -0.000  0.000  0.000
      -0.000 -0.000  0.982  0.000  0.000
       0.000  0.000  0.000  0.961 -0.000
       0.000  0.000  0.000 -0.000  0.987
     ------------------------ ATOM   21 ------------------------
     Tr[ns( 21)] (up, down, total) =   4.87177  4.18321  9.05497
     Atomic magnetic moment for atom  21 =   0.68856
     SPIN  1
     eigenvalues:
       0.961  0.961  0.982  0.982  0.987
     eigenvectors (columns):
      -0.003  1.000  0.000  0.000  0.000
      -0.000  0.000 -1.000  0.000  0.000
      -0.000  0.000 -0.000 -1.000  0.000
       1.000  0.003 -0.000 -0.000 -0.000
       0.000 -0.000  0.000  0.000  1.000
     occupation matrix ns (before diag.):
       0.961 -0.000 -0.000  0.000  0.000
      -0.000  0.982 -0.000  0.000  0.000
      -0.000 -0.000  0.982  0.000  0.000
       0.000  0.000  0.000  0.961 -0.000
       0.000  0.000  0.000 -0.000  0.987
     SPIN  2
     eigenvalues:
       0.339  0.926  0.970  0.970  0.978
     eigenvectors (columns):
       0.000 -1.000 -0.000 -0.000  0.000
       0.000 -0.000  1.000 -0.000  0.000
       0.000 -0.000  0.000  1.000  0.000
      -1.000 -0.000  0.000  0.000 -0.000
      -0.000  0.000 -0.000 -0.000  1.000
     occupation matrix ns (before diag.):
       0.926 -0.000 -0.000  0.000  0.000
      -0.000  0.970 -0.000  0.000  0.000
      -0.000 -0.000  0.970  0.000  0.000
       0.000  0.000  0.000  0.339 -0.000
       0.000  0.000  0.000 -0.000  0.978
     ------------------------ ATOM   23 ------------------------
     Tr[ns( 23)] (up, down, total) =   4.87180  4.18326  9.05506
     Atomic magnetic moment for atom  23 =   0.68855
     SPIN  1
     eigenvalues:
       0.961  0.961  0.982  0.982  0.987
     eigenvectors (columns):
      -0.000  1.000  0.000  0.000  0.000
      -0.000  0.000 -0.326 -0.945  0.000
      -0.000  0.000 -0.945  0.326  0.000
       1.000  0.000 -0.000 -0.000 -0.000
       0.000 -0.000  0.000  0.000  1.000
     occupation matrix ns (before diag.):
       0.961 -0.000 -0.000  0.000  0.000
      -0.000  0.982 -0.000  0.000  0.000
      -0.000 -0.000  0.982  0.000  0.000
       0.000  0.000  0.000  0.961 -0.000
       0.000  0.000  0.000 -0.000  0.987
     SPIN  2
     eigenvalues:
       0.339  0.926  0.970  0.970  0.978
     eigenvectors (columns):
      -0.000 -1.000 -0.000 -0.000  0.000
       0.000 -0.000  0.362  0.932  0.000
       0.000 -0.000  0.932 -0.362  0.000
      -1.000  0.000  0.000  0.000 -0.000
      -0.000  0.000 -0.000 -0.000  1.000
     occupation matrix ns (before diag.):
       0.926 -0.000 -0.000 -0.000  0.000
      -0.000  0.970 -0.000  0.000  0.000
      -0.000 -0.000  0.970  0.000  0.000
      -0.000  0.000  0.000  0.339 -0.000
       0.000  0.000  0.000 -0.000  0.978
     ------------------------ ATOM   24 ------------------------
     Tr[ns( 24)] (up, down, total) =   4.18324  4.87184  9.05508
     Atomic magnetic moment for atom  24 =  -0.68859
     SPIN  1
     eigenvalues:
       0.339  0.926  0.970  0.970  0.978
     eigenvectors (columns):
      -0.000 -1.000 -0.000 -0.000  0.000
       0.000 -0.000  0.363  0.932  0.000
       0.000 -0.000  0.932 -0.363  0.000
      -1.000  0.000  0.000  0.000 -0.000
      -0.000  0.000 -0.000 -0.000  1.000
     occupation matrix ns (before diag.):
       0.926 -0.000 -0.000 -0.000  0.000
      -0.000  0.970 -0.000  0.000  0.000
      -0.000 -0.000  0.970  0.000  0.000
      -0.000  0.000  0.000  0.339 -0.000
       0.000  0.000  0.000 -0.000  0.978
     SPIN  2
     eigenvalues:
       0.961  0.961  0.982  0.982  0.987
     eigenvectors (columns):
      -0.000  1.000  0.000  0.000  0.000
      -0.000  0.000 -0.333 -0.943  0.000
      -0.000  0.000 -0.943  0.333  0.000
       1.000  0.000 -0.000 -0.000 -0.000
       0.000 -0.000  0.000  0.000  1.000
     occupation matrix ns (before diag.):
       0.961 -0.000 -0.000  0.000  0.000
      -0.000  0.982 -0.000  0.000  0.000
      -0.000 -0.000  0.982  0.000  0.000
       0.000  0.000  0.000  0.961 -0.000
       0.000  0.000  0.000 -0.000  0.987

     Number of occupied Hubbard levels =   72.4402

     negative rho (up, down):  3.841E-01 3.841E-01

     HUBBARD ENERGY =    0.3928  (Ry)

     total cpu time spent up to now is      257.6 secs

     total energy              =   -6553.94379702 Ry
     estimated scf accuracy    <       4.44412467 Ry

     total magnetization       =    -0.00 Bohr mag/cell
     absolute magnetization    =     7.10 Bohr mag/cell

     iteration #  3     ecut=    60.00 Ry     beta= 0.10
     Davidson diagonalization with overlap

---- Real-time Memory Report at c_bands before calling an iterative solver
          2395 MiB given to the printing process from OS
             0 MiB allocation reported by mallinfo(arena+hblkhd)
          5550 MiB available memory on the node where the printing process lives
------------------
     ethr =  8.96E-04,  avg # of iterations =  4.3

     =================== HUBBARD OCCUPATIONS ===================
     ------------------------ ATOM   14 ------------------------
     Tr[ns( 14)] (up, down, total) =   4.89551  4.50005  9.39556
     Atomic magnetic moment for atom  14 =   0.39546
     SPIN  1
     eigenvalues:
       0.958  0.973  0.987  0.987  0.991
     eigenvectors (columns):
      -0.000  1.000 -0.000 -0.000  0.000
      -0.000  0.000  0.316  0.949  0.000
      -0.000  0.000  0.949 -0.316  0.000
       1.000  0.000  0.000  0.000 -0.000
       0.000 -0.000 -0.000 -0.000  1.000
     occupation matrix ns (before diag.):
       0.973 -0.000 -0.000  0.000  0.000
      -0.000  0.987 -0.000  0.000  0.000
      -0.000 -0.000  0.987  0.000  0.000
       0.000  0.000  0.000  0.958 -0.000
       0.000  0.000  0.000 -0.000  0.991
     SPIN  2
     eigenvalues:
       0.600  0.954  0.980  0.980  0.985
     eigenvectors (columns):
      -0.000  1.000 -0.000 -0.000  0.000
      -0.000  0.000  0.322  0.947  0.000
      -0.000  0.000  0.947 -0.322  0.000
       1.000  0.000  0.000  0.000 -0.000
       0.000 -0.000 -0.000 -0.000  1.000
     occupation matrix ns (before diag.):
       0.954 -0.000 -0.000  0.000  0.000
      -0.000  0.980 -0.000  0.000  0.000
      -0.000 -0.000  0.980  0.000  0.000
       0.000  0.000  0.000  0.600 -0.000
       0.000  0.000  0.000 -0.000  0.985
     ------------------------ ATOM   15 ------------------------
     Tr[ns( 15)] (up, down, total) =   4.50007  4.89547  9.39554
     Atomic magnetic moment for atom  15 =  -0.39540
     SPIN  1
     eigenvalues:
       0.600  0.954  0.980  0.980  0.985
     eigenvectors (columns):
      -0.000  1.000 -0.000 -0.000  0.000
      -0.000  0.000  0.309  0.951  0.000
      -0.000  0.000  0.951 -0.309  0.000
       1.000  0.000  0.000  0.000 -0.000
       0.000 -0.000 -0.000 -0.000  1.000
     occupation matrix ns (before diag.):
       0.954 -0.000 -0.000  0.000  0.000
      -0.000  0.980 -0.000  0.000  0.000
      -0.000 -0.000  0.980  0.000  0.000
       0.000  0.000  0.000  0.600 -0.000
       0.000  0.000  0.000 -0.000  0.985
     SPIN  2
     eigenvalues:
       0.958  0.973  0.987  0.987  0.991
     eigenvectors (columns):
      -0.000  1.000 -0.000 -0.000  0.000
      -0.000  0.000  0.309  0.951  0.000
      -0.000  0.000  0.951 -0.309  0.000
       1.000  0.000  0.000  0.000 -0.000
       0.000 -0.000 -0.000 -0.000  1.000
     occupation matrix ns (before diag.):
       0.973 -0.000 -0.000  0.000  0.000
      -0.000  0.987 -0.000  0.000  0.000
      -0.000 -0.000  0.987  0.000  0.000
       0.000  0.000  0.000  0.958 -0.000
       0.000  0.000  0.000 -0.000  0.991
     ------------------------ ATOM   17 ------------------------
     Tr[ns( 17)] (up, down, total) =   4.50012  4.89549  9.39561
     Atomic magnetic moment for atom  17 =  -0.39537
     SPIN  1
     eigenvalues:
       0.600  0.954  0.980  0.980  0.985
     eigenvectors (columns):
      -0.000  1.000 -0.000 -0.000  0.000
      -0.000  0.000  0.000  1.000  0.000
      -0.000  0.000  1.000 -0.000  0.000
       1.000  0.000  0.000  0.000 -0.000
       0.000 -0.000 -0.000 -0.000  1.000
     occupation matrix ns (before diag.):
       0.954 -0.000 -0.000  0.000  0.000
      -0.000  0.980 -0.000  0.000  0.000
      -0.000 -0.000  0.980  0.000  0.000
       0.000  0.000  0.000  0.600 -0.000
       0.000  0.000  0.000 -0.000  0.985
     SPIN  2
     eigenvalues:
       0.958  0.973  0.987  0.987  0.991
     eigenvectors (columns):
       0.000  1.000 -0.000 -0.000  0.000
      -0.000  0.000  1.000 -0.000  0.000
      -0.000  0.000  0.000  1.000  0.000
       1.000 -0.000  0.000  0.000 -0.000
       0.000 -0.000 -0.000 -0.000  1.000
     occupation matrix ns (before diag.):
       0.973 -0.000 -0.000 -0.000  0.000
      -0.000  0.987 -0.000  0.000  0.000
      -0.000 -0.000  0.987  0.000  0.000
      -0.000  0.000  0.000  0.958 -0.000
       0.000  0.000  0.000 -0.000  0.991
     ------------------------ ATOM   18 ------------------------
     Tr[ns( 18)] (up, down, total) =   4.89549  4.50010  9.39559
     Atomic magnetic moment for atom  18 =   0.39538
     SPIN  1
     eigenvalues:
       0.958  0.973  0.987  0.987  0.991
     eigenvectors (columns):
       0.000  1.000 -0.000 -0.000  0.000
      -0.000  0.000  0.000  1.000  0.000
      -0.000  0.000  1.000 -0.000  0.000
       1.000 -0.000  0.000  0.000 -0.000
       0.000 -0.000 -0.000 -0.000  1.000
     occupation matrix ns (before diag.):
       0.973 -0.000 -0.000 -0.000  0.000
      -0.000  0.987 -0.000  0.000  0.000
      -0.000 -0.000  0.987  0.000  0.000
      -0.000  0.000  0.000  0.958 -0.000
       0.000  0.000  0.000 -0.000  0.991
     SPIN  2
     eigenvalues:
       0.600  0.954  0.980  0.980  0.985
     eigenvectors (columns):
       0.000  1.000 -0.000 -0.000  0.000
      -0.000  0.000  0.000  1.000  0.000
      -0.000  0.000  1.000 -0.000  0.000
       1.000 -0.000  0.000  0.000 -0.000
       0.000 -0.000 -0.000 -0.000  1.000
     occupation matrix ns (before diag.):
       0.954 -0.000 -0.000 -0.000  0.000
      -0.000  0.980 -0.000  0.000  0.000
      -0.000 -0.000  0.980  0.000  0.000
      -0.000  0.000  0.000  0.600 -0.000
       0.000  0.000  0.000 -0.000  0.985
     ------------------------ ATOM   20 ------------------------
     Tr[ns( 20)] (up, down, total) =   4.50012  4.89549  9.39561
     Atomic magnetic moment for atom  20 =  -0.39537
     SPIN  1
     eigenvalues:
       0.600  0.954  0.980  0.980  0.985
     eigenvectors (columns):
       0.000  1.000 -0.000 -0.000  0.000
      -0.000  0.000  1.000 -0.000  0.000
      -0.000  0.000  0.000  1.000  0.000
       1.000 -0.000  0.000  0.000 -0.000
       0.000 -0.000 -0.000 -0.000  1.000
     occupation matrix ns (before diag.):
       0.954 -0.000 -0.000 -0.000  0.000
      -0.000  0.980 -0.000  0.000  0.000
      -0.000 -0.000  0.980  0.000  0.000
      -0.000  0.000  0.000  0.600 -0.000
       0.000  0.000  0.000 -0.000  0.985
     SPIN  2
     eigenvalues:
       0.958  0.973  0.987  0.987  0.991
     eigenvectors (columns):
      -0.000  1.000 -0.000 -0.000  0.000
      -0.000  0.000  0.000  1.000  0.000
      -0.000  0.000  1.000 -0.000  0.000
       1.000  0.000  0.000  0.000 -0.000
       0.000 -0.000 -0.000 -0.000  1.000
     occupation matrix ns (before diag.):
       0.973 -0.000 -0.000  0.000  0.000
      -0.000  0.987 -0.000  0.000  0.000
      -0.000 -0.000  0.987  0.000  0.000
       0.000  0.000  0.000  0.958 -0.000
       0.000  0.000  0.000 -0.000  0.991
     ------------------------ ATOM   21 ------------------------
     Tr[ns( 21)] (up, down, total) =   4.89549  4.50010  9.39559
     Atomic magnetic moment for atom  21 =   0.39538
     SPIN  1
     eigenvalues:
       0.958  0.973  0.987  0.987  0.991
     eigenvectors (columns):
      -0.000  1.000 -0.000 -0.000  0.000
      -0.000  0.000  1.000 -0.000  0.000
      -0.000  0.000  0.000  1.000  0.000
       1.000  0.000  0.000  0.000 -0.000
       0.000 -0.000 -0.000 -0.000  1.000
     occupation matrix ns (before diag.):
       0.973 -0.000 -0.000  0.000  0.000
      -0.000  0.987 -0.000  0.000  0.000
      -0.000 -0.000  0.987  0.000  0.000
       0.000  0.000  0.000  0.958 -0.000
       0.000  0.000  0.000 -0.000  0.991
     SPIN  2
     eigenvalues:
       0.600  0.954  0.980  0.980  0.985
     eigenvectors (columns):
      -0.000  1.000 -0.000 -0.000  0.000
      -0.000  0.000  1.000 -0.000  0.000
      -0.000  0.000  0.000  1.000  0.000
       1.000  0.000  0.000  0.000 -0.000
       0.000 -0.000 -0.000 -0.000  1.000
     occupation matrix ns (before diag.):
       0.954 -0.000 -0.000  0.000  0.000
      -0.000  0.980 -0.000  0.000  0.000
      -0.000 -0.000  0.980  0.000  0.000
       0.000  0.000  0.000  0.600 -0.000
       0.000  0.000  0.000 -0.000  0.985
     ------------------------ ATOM   23 ------------------------
     Tr[ns( 23)] (up, down, total) =   4.89550  4.50010  9.39561
     Atomic magnetic moment for atom  23 =   0.39540
     SPIN  1
     eigenvalues:
       0.958  0.973  0.987  0.987  0.991
     eigenvectors (columns):
      -0.000  1.000 -0.000 -0.000  0.000
      -0.000  0.000  0.307  0.952  0.000
      -0.000  0.000  0.952 -0.307  0.000
       1.000  0.000  0.000  0.000 -0.000
       0.000 -0.000 -0.000 -0.000  1.000
     occupation matrix ns (before diag.):
       0.973 -0.000 -0.000  0.000  0.000
      -0.000  0.987 -0.000  0.000  0.000
      -0.000 -0.000  0.987  0.000  0.000
       0.000  0.000  0.000  0.958 -0.000
       0.000  0.000  0.000 -0.000  0.991
     SPIN  2
     eigenvalues:
       0.600  0.954  0.980  0.980  0.985
     eigenvectors (columns):
      -0.000  1.000 -0.000 -0.000  0.000
      -0.000  0.000  0.331  0.944  0.000
      -0.000  0.000  0.944 -0.331  0.000
       1.000  0.000  0.000  0.000 -0.000
       0.000 -0.000 -0.000 -0.000  1.000
     occupation matrix ns (before diag.):
       0.954 -0.000 -0.000  0.000  0.000
      -0.000  0.980 -0.000  0.000  0.000
      -0.000 -0.000  0.980  0.000  0.000
       0.000  0.000  0.000  0.600 -0.000
       0.000  0.000  0.000 -0.000  0.985
     ------------------------ ATOM   24 ------------------------
     Tr[ns( 24)] (up, down, total) =   4.50006  4.89550  9.39556
     Atomic magnetic moment for atom  24 =  -0.39544
     SPIN  1
     eigenvalues:
       0.600  0.954  0.980  0.980  0.985
     eigenvectors (columns):
      -0.000  1.000 -0.000 -0.000  0.000
      -0.000  0.000  0.342  0.940  0.000
      -0.000  0.000  0.940 -0.342  0.000
       1.000  0.000  0.000  0.000 -0.000
       0.000 -0.000 -0.000 -0.000  1.000
     occupation matrix ns (before diag.):
       0.954 -0.000 -0.000  0.000  0.000
      -0.000  0.980 -0.000  0.000  0.000
      -0.000 -0.000  0.980  0.000  0.000
       0.000  0.000  0.000  0.600 -0.000
       0.000  0.000  0.000 -0.000  0.985
     SPIN  2
     eigenvalues:
       0.958  0.973  0.987  0.987  0.991
     eigenvectors (columns):
      -0.000  1.000 -0.000 -0.000  0.000
      -0.000  0.000  0.334  0.943  0.000
      -0.000  0.000  0.943 -0.334  0.000
       1.000  0.000  0.000  0.000 -0.000
       0.000 -0.000 -0.000 -0.000  1.000
     occupation matrix ns (before diag.):
       0.973 -0.000 -0.000  0.000  0.000
      -0.000  0.987 -0.000  0.000  0.000
      -0.000 -0.000  0.987  0.000  0.000
       0.000  0.000  0.000  0.958 -0.000
       0.000  0.000  0.000 -0.000  0.991

     Number of occupied Hubbard levels =   75.1647

     negative rho (up, down):  3.832E-01 3.832E-01

     HUBBARD ENERGY =    0.3926  (Ry)

     total cpu time spent up to now is      367.5 secs

     total energy              =   -6554.63121487 Ry
     estimated scf accuracy    <       1.41575934 Ry

     total magnetization       =     0.00 Bohr mag/cell
     absolute magnetization    =     4.81 Bohr mag/cell

     iteration #  4     ecut=    60.00 Ry     beta= 0.10
     Davidson diagonalization with overlap

---- Real-time Memory Report at c_bands before calling an iterative solver
          2403 MiB given to the printing process from OS
             0 MiB allocation reported by mallinfo(arena+hblkhd)
          5569 MiB available memory on the node where the printing process lives
------------------
     ethr =  2.85E-04,  avg # of iterations =  1.5
     Minimization algorithm failed to find Fermi energy: reverting to bisection
     Possible cause: smearing is larger than the electronic band-gap.

     =================== HUBBARD OCCUPATIONS ===================
     ------------------------ ATOM   14 ------------------------
     Tr[ns( 14)] (up, down, total) =   4.88585  4.36526  9.25111
     Atomic magnetic moment for atom  14 =   0.52060
     SPIN  1
     eigenvalues:
       0.956  0.968  0.986  0.986  0.990
     eigenvectors (columns):
      -0.000  1.000 -0.000 -0.000  0.000
      -0.000  0.000  0.309  0.951  0.000
      -0.000  0.000  0.951 -0.309  0.000
       1.000  0.000  0.000  0.000 -0.000
       0.000 -0.000 -0.000 -0.000  1.000
     occupation matrix ns (before diag.):
       0.968 -0.000 -0.000  0.000  0.000
      -0.000  0.986 -0.000  0.000  0.000
      -0.000 -0.000  0.986  0.000  0.000
       0.000  0.000  0.000  0.956 -0.000
       0.000  0.000  0.000 -0.000  0.990
     SPIN  2
     eigenvalues:
       0.478  0.946  0.979  0.979  0.984
     eigenvectors (columns):
      -0.000  1.000 -0.000 -0.000  0.000
      -0.000  0.000  0.313  0.950  0.000
      -0.000  0.000  0.950 -0.313  0.000
       1.000 -0.000  0.000  0.000 -0.000
       0.000 -0.000 -0.000 -0.000  1.000
     occupation matrix ns (before diag.):
       0.946 -0.000 -0.000  0.000  0.000
      -0.000  0.979 -0.000  0.000  0.000
      -0.000 -0.000  0.979  0.000  0.000
       0.000  0.000  0.000  0.478 -0.000
       0.000  0.000  0.000 -0.000  0.984
     ------------------------ ATOM   15 ------------------------
     Tr[ns( 15)] (up, down, total) =   4.36523  4.88585  9.25108
     Atomic magnetic moment for atom  15 =  -0.52061
     SPIN  1
     eigenvalues:
       0.478  0.946  0.979  0.979  0.984
     eigenvectors (columns):
      -0.000  1.000 -0.000 -0.000  0.000
      -0.000  0.000  0.323  0.946  0.000
      -0.000  0.000  0.946 -0.323  0.000
       1.000  0.000  0.000  0.000 -0.000
       0.000 -0.000 -0.000 -0.000  1.000
     occupation matrix ns (before diag.):
       0.946 -0.000 -0.000  0.000  0.000
      -0.000  0.979 -0.000  0.000  0.000
      -0.000 -0.000  0.979  0.000  0.000
       0.000  0.000  0.000  0.478 -0.000
       0.000  0.000  0.000 -0.000  0.984
     SPIN  2
     eigenvalues:
       0.956  0.968  0.986  0.986  0.990
     eigenvectors (columns):
      -0.000  1.000 -0.000 -0.000  0.000
      -0.000  0.000  0.334  0.942  0.000
      -0.000  0.000  0.942 -0.334  0.000
       1.000  0.000  0.000  0.000 -0.000
       0.000 -0.000 -0.000 -0.000  1.000
     occupation matrix ns (before diag.):
       0.968 -0.000 -0.000  0.000  0.000
      -0.000  0.986 -0.000  0.000  0.000
      -0.000 -0.000  0.986  0.000  0.000
       0.000  0.000  0.000  0.956 -0.000
       0.000  0.000  0.000 -0.000  0.990
     ------------------------ ATOM   17 ------------------------
     Tr[ns( 17)] (up, down, total) =   4.36524  4.88584  9.25108
     Atomic magnetic moment for atom  17 =  -0.52060
     SPIN  1
     eigenvalues:
       0.478  0.946  0.979  0.979  0.984
     eigenvectors (columns):
      -0.000  1.000 -0.000 -0.000  0.000
      -0.000  0.000  0.000  1.000  0.000
      -0.000  0.000  1.000 -0.000  0.000
       1.000  0.000  0.000  0.000 -0.000
       0.000 -0.000 -0.000 -0.000  1.000
     occupation matrix ns (before diag.):
       0.946 -0.000 -0.000  0.000  0.000
      -0.000  0.979 -0.000  0.000  0.000
      -0.000 -0.000  0.979  0.000  0.000
       0.000  0.000  0.000  0.478 -0.000
       0.000  0.000  0.000 -0.000  0.984
     SPIN  2
     eigenvalues:
       0.956  0.968  0.986  0.986  0.990
     eigenvectors (columns):
       0.000  1.000 -0.000 -0.000  0.000
      -0.000  0.000  0.000  1.000  0.000
      -0.000  0.000  1.000 -0.000  0.000
       1.000 -0.000  0.000  0.000 -0.000
       0.000 -0.000 -0.000 -0.000  1.000
     occupation matrix ns (before diag.):
       0.968 -0.000 -0.000 -0.000  0.000
      -0.000  0.986 -0.000  0.000  0.000
      -0.000 -0.000  0.986  0.000  0.000
      -0.000  0.000  0.000  0.956 -0.000
       0.000  0.000  0.000 -0.000  0.990
     ------------------------ ATOM   18 ------------------------
     Tr[ns( 18)] (up, down, total) =   4.88584  4.36523  9.25107
     Atomic magnetic moment for atom  18 =   0.52061
     SPIN  1
     eigenvalues:
       0.956  0.968  0.986  0.986  0.990
     eigenvectors (columns):
      -0.000  1.000 -0.000 -0.000  0.000
      -0.000  0.000  0.000  1.000  0.000
      -0.000  0.000  1.000 -0.000  0.000
       1.000  0.000  0.000  0.000 -0.000
       0.000 -0.000 -0.000 -0.000  1.000
     occupation matrix ns (before diag.):
       0.968 -0.000 -0.000  0.000  0.000
      -0.000  0.986 -0.000  0.000  0.000
      -0.000 -0.000  0.986  0.000  0.000
       0.000  0.000  0.000  0.956 -0.000
       0.000  0.000  0.000 -0.000  0.990
     SPIN  2
     eigenvalues:
       0.478  0.946  0.979  0.979  0.984
     eigenvectors (columns):
       0.000  1.000 -0.000 -0.000  0.000
      -0.000  0.000  0.000  1.000  0.000
      -0.000  0.000  1.000 -0.000  0.000
       1.000 -0.000  0.000  0.000 -0.000
       0.000 -0.000 -0.000 -0.000  1.000
     occupation matrix ns (before diag.):
       0.946 -0.000 -0.000 -0.000  0.000
      -0.000  0.979 -0.000  0.000  0.000
      -0.000 -0.000  0.979  0.000  0.000
      -0.000  0.000  0.000  0.478 -0.000
       0.000  0.000  0.000 -0.000  0.984
     ------------------------ ATOM   20 ------------------------
     Tr[ns( 20)] (up, down, total) =   4.36524  4.88584  9.25108
     Atomic magnetic moment for atom  20 =  -0.52060
     SPIN  1
     eigenvalues:
       0.478  0.946  0.979  0.979  0.984
     eigenvectors (columns):
       0.000  1.000 -0.000 -0.000  0.000
      -0.000  0.000  1.000 -0.000  0.000
      -0.000  0.000  0.000  1.000  0.000
       1.000 -0.000  0.000  0.000 -0.000
       0.000 -0.000 -0.000 -0.000  1.000
     occupation matrix ns (before diag.):
       0.946 -0.000 -0.000 -0.000  0.000
      -0.000  0.979 -0.000  0.000  0.000
      -0.000 -0.000  0.979  0.000  0.000
      -0.000  0.000  0.000  0.478 -0.000
       0.000  0.000  0.000 -0.000  0.984
     SPIN  2
     eigenvalues:
       0.956  0.968  0.986  0.986  0.990
     eigenvectors (columns):
      -0.000  1.000 -0.000 -0.000  0.000
      -0.000  0.000  1.000 -0.000  0.000
      -0.000  0.000  0.000  1.000  0.000
       1.000  0.000  0.000  0.000 -0.000
       0.000 -0.000 -0.000 -0.000  1.000
     occupation matrix ns (before diag.):
       0.968 -0.000 -0.000  0.000  0.000
      -0.000  0.986 -0.000  0.000  0.000
      -0.000 -0.000  0.986  0.000  0.000
       0.000  0.000  0.000  0.956 -0.000
       0.000  0.000  0.000 -0.000  0.990
     ------------------------ ATOM   21 ------------------------
     Tr[ns( 21)] (up, down, total) =   4.88584  4.36523  9.25107
     Atomic magnetic moment for atom  21 =   0.52061
     SPIN  1
     eigenvalues:
       0.956  0.968  0.986  0.986  0.990
     eigenvectors (columns):
       0.000  1.000 -0.000 -0.000  0.000
      -0.000  0.000  1.000 -0.000  0.000
      -0.000  0.000  0.000  1.000  0.000
       1.000 -0.000  0.000  0.000 -0.000
       0.000 -0.000 -0.000 -0.000  1.000
     occupation matrix ns (before diag.):
       0.968 -0.000 -0.000 -0.000  0.000
      -0.000  0.986 -0.000  0.000  0.000
      -0.000 -0.000  0.986  0.000  0.000
      -0.000  0.000  0.000  0.956 -0.000
       0.000  0.000  0.000 -0.000  0.990
     SPIN  2
     eigenvalues:
       0.478  0.946  0.979  0.979  0.984
     eigenvectors (columns):
      -0.000  1.000 -0.000 -0.000  0.000
      -0.000  0.000  1.000 -0.000  0.000
      -0.000  0.000  0.000  1.000  0.000
       1.000  0.000  0.000  0.000 -0.000
       0.000 -0.000 -0.000 -0.000  1.000
     occupation matrix ns (before diag.):
       0.946 -0.000 -0.000  0.000  0.000
      -0.000  0.979 -0.000  0.000  0.000
      -0.000 -0.000  0.979  0.000  0.000
       0.000  0.000  0.000  0.478 -0.000
       0.000  0.000  0.000 -0.000  0.984
     ------------------------ ATOM   23 ------------------------
     Tr[ns( 23)] (up, down, total) =   4.88586  4.36530  9.25116
     Atomic magnetic moment for atom  23 =   0.52056
     SPIN  1
     eigenvalues:
       0.956  0.968  0.986  0.986  0.990
     eigenvectors (columns):
      -0.000  1.000 -0.000 -0.000  0.000
      -0.000  0.000  0.342  0.940  0.000
      -0.000  0.000  0.940 -0.342  0.000
       1.000  0.000  0.000  0.000 -0.000
       0.000 -0.000 -0.000 -0.000  1.000
     occupation matrix ns (before diag.):
       0.968 -0.000 -0.000  0.000  0.000
      -0.000  0.986 -0.000  0.000  0.000
      -0.000 -0.000  0.986  0.000  0.000
       0.000  0.000  0.000  0.956 -0.000
       0.000  0.000  0.000 -0.000  0.990
     SPIN  2
     eigenvalues:
       0.478  0.946  0.979  0.979  0.984
     eigenvectors (columns):
       0.000  1.000 -0.000 -0.000  0.000
      -0.000  0.000  0.365  0.931  0.000
      -0.000  0.000  0.931 -0.365  0.000
       1.000 -0.000  0.000  0.000 -0.000
       0.000 -0.000 -0.000 -0.000  1.000
     occupation matrix ns (before diag.):
       0.946 -0.000 -0.000  0.000  0.000
      -0.000  0.979 -0.000  0.000  0.000
      -0.000 -0.000  0.979  0.000  0.000
       0.000  0.000  0.000  0.478 -0.000
       0.000  0.000  0.000 -0.000  0.984
     ------------------------ ATOM   24 ------------------------
     Tr[ns( 24)] (up, down, total) =   4.36525  4.88586  9.25112
     Atomic magnetic moment for atom  24 =  -0.52061
     SPIN  1
     eigenvalues:
       0.478  0.946  0.979  0.979  0.984
     eigenvectors (columns):
      -0.000  1.000 -0.000 -0.000  0.000
      -0.000  0.000  0.321  0.947  0.000
      -0.000  0.000  0.947 -0.321  0.000
       1.000  0.000  0.000  0.000 -0.000
       0.000 -0.000 -0.000 -0.000  1.000
     occupation matrix ns (before diag.):
       0.946 -0.000 -0.000  0.000  0.000
      -0.000  0.979 -0.000  0.000  0.000
      -0.000 -0.000  0.979  0.000  0.000
       0.000  0.000  0.000  0.478 -0.000
       0.000  0.000  0.000 -0.000  0.984
     SPIN  2
     eigenvalues:
       0.956  0.968  0.986  0.986  0.990
     eigenvectors (columns):
      -0.000  1.000 -0.000 -0.000  0.000
      -0.000  0.000  0.321  0.947  0.000
      -0.000  0.000  0.947 -0.321  0.000
       1.000  0.000  0.000  0.000 -0.000
       0.000 -0.000 -0.000 -0.000  1.000
     occupation matrix ns (before diag.):
       0.968 -0.000 -0.000  0.000  0.000
      -0.000  0.986 -0.000  0.000  0.000
      -0.000 -0.000  0.986  0.000  0.000
       0.000  0.000  0.000  0.956 -0.000
       0.000  0.000  0.000 -0.000  0.990

     Number of occupied Hubbard levels =   74.0088

     negative rho (up, down):  3.772E-01 3.772E-01

     HUBBARD ENERGY =    0.3857  (Ry)

     total cpu time spent up to now is      456.5 secs

     total energy              =   -6554.61589581 Ry
     estimated scf accuracy    <       0.75243606 Ry

     total magnetization       =     0.00 Bohr mag/cell
     absolute magnetization    =     5.89 Bohr mag/cell

     iteration #  5     ecut=    60.00 Ry     beta= 0.10
     Davidson diagonalization with overlap

---- Real-time Memory Report at c_bands before calling an iterative solver
          2408 MiB given to the printing process from OS
             0 MiB allocation reported by mallinfo(arena+hblkhd)
          5549 MiB available memory on the node where the printing process lives
------------------
     ethr =  1.52E-04,  avg # of iterations =  5.6

     =================== HUBBARD OCCUPATIONS ===================
     ------------------------ ATOM   14 ------------------------
     Tr[ns( 14)] (up, down, total) =   4.88236  4.47713  9.35950
     Atomic magnetic moment for atom  14 =   0.40523
     SPIN  1
     eigenvalues:
       0.954  0.968  0.985  0.985  0.990
     eigenvectors (columns):
      -0.000  1.000 -0.000 -0.000  0.000
      -0.000  0.000  0.337  0.942  0.000
      -0.000  0.000  0.942 -0.337  0.000
       1.000  0.000  0.000  0.000 -0.000
       0.000 -0.000 -0.000 -0.000  1.000
     occupation matrix ns (before diag.):
       0.968 -0.000 -0.000  0.000  0.000
      -0.000  0.985 -0.000  0.000  0.000
      -0.000 -0.000  0.985  0.000  0.000
       0.000  0.000  0.000  0.954 -0.000
       0.000  0.000  0.000 -0.000  0.990
     SPIN  2
     eigenvalues:
       0.585  0.950  0.979  0.979  0.984
     eigenvectors (columns):
      -0.000  1.000 -0.000 -0.000  0.000
      -0.000  0.000  0.322  0.947  0.000
[...]
     8.0785   8.0785   8.0838   8.0838   8.2290   8.2290   8.3278   8.3278
     8.4123   8.4123   8.4931   8.4931   8.5017   8.5017   8.5103   8.5103
     8.5502   8.5502   8.6346   8.6346   8.8286   8.8286   8.9010   8.9010
     8.9047   8.9047   8.9910   8.9910   8.9952   8.9952   9.0931   9.0931
     9.0981   9.0981   9.1170   9.1170   9.1264   9.1264   9.1729   9.1729
     9.2070   9.2070   9.2329   9.2329   9.2798   9.2798   9.2917   9.2917
     9.6135   9.6135   9.7941   9.7941   9.9365   9.9365  10.0990  10.0990
    10.5058  10.5058  10.5907  10.5907  10.6064  10.6064  10.6299  10.6299
    11.6684  11.6684  11.8415  11.8415  13.2026  13.2026  13.6323  13.6323
    14.1443  14.1443  14.3110  14.3110  14.4771  14.4771  15.1045  15.1045
    15.2146  15.2146  15.3605  15.3605  15.4246  15.4246  15.6501  15.6501
    15.7934  15.7934  16.3097  16.3097  16.3753  16.3753  16.6983  16.6983
    16.7041  16.7041  16.8436  16.8436  16.8875  16.8875  17.0796  17.0796
    17.4886  17.4886  17.6040  17.6040  17.6360  17.6360  17.6874  17.6874
    18.0012  18.0012

     occupation numbers 
     1.0000   1.0000   1.0000   1.0000   1.0000   1.0000   1.0000   1.0000
     1.0000   1.0000   1.0000   1.0000   1.0000   1.0000   1.0000   1.0000
     1.0000   1.0000   1.0000   1.0000   1.0000   1.0000   1.0000   1.0000
     1.0000   1.0000   1.0000   1.0000   1.0000   1.0000   1.0000   1.0000
     1.0000   1.0000   1.0000   1.0000   1.0000   1.0000   1.0000   1.0000
     1.0000   1.0000   1.0000   1.0000   1.0000   1.0000   1.0000   1.0000
     1.0000   1.0000   1.0000   1.0000   1.0000   1.0000   1.0000   1.0000
     1.0000   1.0000   1.0000   1.0000   1.0000   1.0000   1.0000   1.0000
     1.0000   1.0000   1.0000   1.0000   1.0000   1.0000   1.0000   1.0000
     1.0000   1.0000   1.0000   1.0000   1.0000   1.0000   1.0000   1.0000
     1.0000   1.0000   1.0000   1.0000   1.0000   1.0000   1.0000   1.0000
     1.0000   1.0000   1.0000   1.0000   1.0000   1.0000   1.0000   1.0000
     1.0000   1.0000   1.0000   1.0000   1.0000   1.0000   1.0000   1.0000
     1.0000   1.0000   1.0000   1.0000   1.0000   1.0000   1.0000   1.0000
     1.0000   1.0000   1.0000   1.0000   1.0000   1.0000   1.0000   1.0000
     1.0000   1.0000   1.0000   1.0000   1.0000   1.0000   1.0000   1.0000
     1.0000   1.0000   1.0000   1.0000   1.0000   1.0000   1.0000   1.0000
     1.0000   1.0000   1.0000   1.0000   1.0000   1.0000   1.0000   1.0000
     1.0000   1.0000   1.0000   1.0000   1.0000   1.0000   1.0000   1.0000
     1.0000   1.0000   1.0000   1.0000   1.0000   1.0000   1.0000   1.0000
     1.0000   1.0000   1.0000   1.0000   1.0000   1.0000   1.0000   1.0000
     1.0000   1.0000   1.0000   1.0000   1.0000   1.0000   1.0000   1.0000
     1.0000   1.0000   1.0000   1.0000   1.0000   1.0000   1.0000   1.0000
     1.0000   1.0000   1.0000   1.0000   1.0000   1.0000   1.0000   1.0000
     1.0000   1.0000   1.0000   1.0000   1.0000   1.0000   1.0000   1.0000
     1.0000   1.0000   1.0000   1.0000   1.0000   1.0000   1.0000   1.0000
     1.0000   1.0000   1.0000   1.0000   1.0000   1.0000   1.0000   1.0000
     1.0000   1.0000   1.0000   1.0000   1.0000   1.0000   1.0000   1.0000
     1.0000   1.0000   1.0000   1.0000   1.0000   1.0000   1.0000   1.0000
     1.0000   1.0000   1.0000   1.0000   1.0000   1.0000   1.0000   1.0000
     1.0000   1.0000   1.0000   1.0000   1.0001   1.0001   1.0002   1.0002
    -0.0000  -0.0000  -0.0000  -0.0000  -0.0000  -0.0000  -0.0000  -0.0000
    -0.0000  -0.0000  -0.0000  -0.0000  -0.0000  -0.0000  -0.0000  -0.0000
    -0.0000  -0.0000  -0.0000  -0.0000  -0.0000  -0.0000  -0.0000  -0.0000
    -0.0000  -0.0000  -0.0000  -0.0000  -0.0000  -0.0000  -0.0000  -0.0000
    -0.0000  -0.0000  -0.0000  -0.0000  -0.0000  -0.0000  -0.0000  -0.0000
    -0.0000  -0.0000  -0.0000  -0.0000  -0.0000  -0.0000  -0.0000  -0.0000
    -0.0000  -0.0000

          k =-0.5000-0.5000 0.0000 ( 35276 PWs)   bands (ev):

  -100.5224-100.5224-100.5224-100.5223-100.2932-100.2932-100.2926-100.2926
   -99.9703 -99.9703 -99.9703 -99.9703 -58.5464 -58.5464 -58.5464 -58.5464
   -58.5463 -58.5463 -58.5463 -58.5463 -58.2822 -58.2822 -58.2822 -58.2822
   -58.2816 -58.2816 -58.2815 -58.2815 -58.0390 -58.0390 -58.0389 -58.0389
   -58.0303 -58.0303 -58.0303 -58.0303 -57.9130 -57.9130 -57.9126 -57.9126
   -57.7113 -57.7113 -57.7113 -57.7113 -57.7113 -57.7113 -57.7113 -57.7113
   -30.1812 -30.1812 -30.1812 -30.1812 -15.1069 -15.1069 -15.1069 -15.1069
   -15.1017 -15.1017 -15.1017 -15.1017 -10.7157 -10.7157 -10.7157 -10.7157
   -10.6947 -10.6947 -10.6947 -10.6947 -10.6482 -10.6482 -10.6482 -10.6482
    -6.9966  -6.9966  -6.9966  -6.9966  -6.7739  -6.7739  -6.7739  -6.7738
    -6.5566  -6.5566  -6.5566  -6.5566  -6.3202  -6.3202  -6.3202  -6.3201
    -6.1191  -6.1191  -6.1191  -6.1191  -5.7802  -5.7802  -5.7802  -5.7802
    -0.5733  -0.5733  -0.5733  -0.5733  -0.5620  -0.5620  -0.5620  -0.5620
    -0.5380  -0.5380  -0.5380  -0.5380  -0.4227  -0.4227  -0.4227  -0.4227
    -0.0781  -0.0781  -0.0781  -0.0781  -0.0013  -0.0013  -0.0013  -0.0013
     4.2329   4.2329   4.2329   4.2329   4.6559   4.6559   4.6559   4.6559
     5.0259   5.0259   5.0261   5.0261   5.2598   5.2598   5.2603   5.2603
     5.6132   5.6132   5.6132   5.6132   5.7707   5.7707   5.7708   5.7708
     5.8269   5.8269   5.8270   5.8270   5.9555   5.9555   5.9555   5.9555
     6.3410   6.3410   6.3410   6.3410   6.7211   6.7211   6.7211   6.7211
     6.9378   6.9378   6.9379   6.9379   7.1408   7.1408   7.1409   7.1409
     7.4098   7.4098   7.4098   7.4098   7.4759   7.4760   7.4760   7.4760
     7.6530   7.6530   7.6530   7.6530   7.9241   7.9241   7.9241   7.9241
     8.1427   8.1427   8.1427   8.1427   8.1481   8.1481   8.1482   8.1482
     8.3242   8.3242   8.3242   8.3242   8.6003   8.6003   8.6004   8.6004
     8.6952   8.6952   8.6952   8.6952   8.8419   8.8419   8.8419   8.8419
     8.9513   8.9513   8.9514   8.9515   8.9726   8.9726   8.9726   8.9726
     9.0591   9.0591   9.0592   9.0592   9.1577   9.1577   9.1578   9.1578
     9.2821   9.2821   9.2822   9.2822   9.3509   9.3509   9.3509   9.3509
     9.5207   9.5207   9.5208   9.5208  10.3913  10.3913  10.3913  10.3913
    10.8192  10.8192  10.8192  10.8192  11.0082  11.0082  11.0083  11.0083
    11.3700  11.3700  11.3706  11.3706  13.6001  13.6001  13.6001  13.6001
    14.6981  14.6981  14.6981  14.6981  14.7456  14.7456  14.7456  14.7456
    14.8613  14.8613  14.8613  14.8613  16.1112  16.1112  16.1112  16.1112
    16.3460  16.3460  16.3460  16.3460  16.4126  16.4126  16.4126  16.4126
    16.8844  16.8844  16.8844  16.8844  17.0430  17.0430  17.0430  17.0431
    17.0760  17.0760  17.0761  17.0761  17.3601  17.3602  17.3602  17.3602
    17.4243  17.4243

     occupation numbers 
     1.0000   1.0000   1.0000   1.0000   1.0000   1.0000   1.0000   1.0000
     1.0000   1.0000   1.0000   1.0000   1.0000   1.0000   1.0000   1.0000
     1.0000   1.0000   1.0000   1.0000   1.0000   1.0000   1.0000   1.0000
     1.0000   1.0000   1.0000   1.0000   1.0000   1.0000   1.0000   1.0000
     1.0000   1.0000   1.0000   1.0000   1.0000   1.0000   1.0000   1.0000
     1.0000   1.0000   1.0000   1.0000   1.0000   1.0000   1.0000   1.0000
     1.0000   1.0000   1.0000   1.0000   1.0000   1.0000   1.0000   1.0000
     1.0000   1.0000   1.0000   1.0000   1.0000   1.0000   1.0000   1.0000
     1.0000   1.0000   1.0000   1.0000   1.0000   1.0000   1.0000   1.0000
     1.0000   1.0000   1.0000   1.0000   1.0000   1.0000   1.0000   1.0000
     1.0000   1.0000   1.0000   1.0000   1.0000   1.0000   1.0000   1.0000
     1.0000   1.0000   1.0000   1.0000   1.0000   1.0000   1.0000   1.0000
     1.0000   1.0000   1.0000   1.0000   1.0000   1.0000   1.0000   1.0000
     1.0000   1.0000   1.0000   1.0000   1.0000   1.0000   1.0000   1.0000
     1.0000   1.0000   1.0000   1.0000   1.0000   1.0000   1.0000   1.0000
     1.0000   1.0000   1.0000   1.0000   1.0000   1.0000   1.0000   1.0000
     1.0000   1.0000   1.0000   1.0000   1.0000   1.0000   1.0000   1.0000
     1.0000   1.0000   1.0000   1.0000   1.0000   1.0000   1.0000   1.0000
     1.0000   1.0000   1.0000   1.0000   1.0000   1.0000   1.0000   1.0000
     1.0000   1.0000   1.0000   1.0000   1.0000   1.0000   1.0000   1.0000
     1.0000   1.0000   1.0000   1.0000   1.0000   1.0000   1.0000   1.0000
     1.0000   1.0000   1.0000   1.0000   1.0000   1.0000   1.0000   1.0000
     1.0000   1.0000   1.0000   1.0000   1.0000   1.0000   1.0000   1.0000
     1.0000   1.0000   1.0000   1.0000   1.0000   1.0000   1.0000   1.0000
     1.0000   1.0000   1.0000   1.0000   1.0000   1.0000   1.0000   1.0000
     1.0000   1.0000   1.0000   1.0000   1.0000   1.0000   1.0000   1.0000
     1.0000   1.0000   1.0000   1.0000   1.0000   1.0000   1.0000   1.0000
     1.0000   1.0000   1.0000   1.0000   1.0000   1.0000   1.0000   1.0000
     1.0000   1.0000   1.0000   1.0000   1.0000   1.0000   1.0000   1.0000
     1.0000   1.0000   1.0000   1.0000   1.0000   1.0000   1.0000   1.0000
     1.0302   1.0302   1.0302   1.0302   0.5440   0.5439   0.5436   0.5436
    -0.0007  -0.0007  -0.0007  -0.0007  -0.0000  -0.0000  -0.0000  -0.0000
    -0.0000  -0.0000  -0.0000  -0.0000  -0.0000  -0.0000  -0.0000  -0.0000
    -0.0000  -0.0000  -0.0000  -0.0000  -0.0000  -0.0000  -0.0000  -0.0000
    -0.0000  -0.0000  -0.0000  -0.0000  -0.0000  -0.0000  -0.0000  -0.0000
    -0.0000  -0.0000  -0.0000  -0.0000  -0.0000  -0.0000  -0.0000  -0.0000
    -0.0000  -0.0000  -0.0000  -0.0000  -0.0000  -0.0000  -0.0000  -0.0000
    -0.0000  -0.0000

          k =-0.5000-0.5000-0.3279 ( 35256 PWs)   bands (ev):

  -100.5224-100.5224-100.5224-100.5223-100.2932-100.2932-100.2926-100.2926
   -99.9703 -99.9703 -99.9703 -99.9703 -58.5464 -58.5464 -58.5464 -58.5464
   -58.5463 -58.5463 -58.5463 -58.5463 -58.2822 -58.2822 -58.2822 -58.2822
   -58.2816 -58.2816 -58.2815 -58.2815 -58.0390 -58.0390 -58.0389 -58.0389
   -58.0303 -58.0303 -58.0303 -58.0303 -57.9130 -57.9130 -57.9126 -57.9126
   -57.7113 -57.7113 -57.7113 -57.7113 -57.7113 -57.7113 -57.7113 -57.7113
   -30.1812 -30.1812 -30.1812 -30.1812 -15.1094 -15.1094 -15.1094 -15.1094
   -15.0991 -15.0991 -15.0991 -15.0991 -10.7158 -10.7158 -10.7158 -10.7158
   -10.6947 -10.6947 -10.6947 -10.6947 -10.6482 -10.6482 -10.6482 -10.6482
    -6.9949  -6.9949  -6.9949  -6.9949  -6.7776  -6.7776  -6.7776  -6.7776
    -6.5566  -6.5566  -6.5566  -6.5566  -6.3202  -6.3202  -6.3201  -6.3201
    -6.1119  -6.1119  -6.1119  -6.1119  -5.7855  -5.7855  -5.7855  -5.7855
    -0.5635  -0.5635  -0.5635  -0.5635  -0.5515  -0.5515  -0.5515  -0.5515
    -0.5486  -0.5486  -0.5486  -0.5486  -0.4336  -0.4336  -0.4336  -0.4336
    -0.0575  -0.0575  -0.0575  -0.0575  -0.0218  -0.0218  -0.0218  -0.0218
     4.2475   4.2475   4.2475   4.2475   4.6379   4.6379   4.6379   4.6379
     5.0259   5.0259   5.0261   5.0261   5.2598   5.2598   5.2603   5.2603
     5.6211   5.6211   5.6211   5.6211   5.7471   5.7471   5.7472   5.7472
     5.8603   5.8603   5.8604   5.8604   5.9521   5.9521   5.9521   5.9521
     6.3414   6.3414   6.3415   6.3415   6.7856   6.7856   6.7857   6.7857
     6.9363   6.9363   6.9364   6.9364   6.9622   6.9622   6.9622   6.9622
     7.2288   7.2288   7.2288   7.2288   7.6410   7.6410   7.6410   7.6410
     7.8493   7.8493   7.8494   7.8494   8.0205   8.0205   8.0206   8.0206
     8.0744   8.0744   8.0745   8.0745   8.1910   8.1910   8.1910   8.1910
     8.2238   8.2238   8.2238   8.2238   8.6241   8.6241   8.6242   8.6242
     8.8303   8.8303   8.8303   8.8303   8.8468   8.8468   8.8470   8.8470
     8.9167   8.9167   8.9168   8.9168   8.9460   8.9460   8.9461   8.9461
     9.0962   9.0962   9.0962   9.0962   9.1541   9.1541   9.1541   9.1541
     9.1755   9.1755   9.1755   9.1755   9.2994   9.2994   9.2994   9.2994
     9.4668   9.4668   9.4668   9.4668  10.3817  10.3817  10.3818  10.3818
    10.8108  10.8108  10.8108  10.8109  11.0222  11.0222  11.0223  11.0223
    11.3666  11.3666  11.3672  11.3672  13.6842  13.6842  13.6842  13.6842
    14.5606  14.5606  14.5606  14.5606  14.7920  14.7920  14.7920  14.7920
    14.9708  14.9708  14.9708  14.9708  16.0989  16.0989  16.0989  16.0989
    16.3926  16.3926  16.3926  16.3926  16.4567  16.4567  16.4567  16.4567
    16.5217  16.5217  16.5217  16.5217  16.7811  16.7811  16.7811  16.7811
    16.9102  16.9102  16.9102  16.9102  17.3517  17.3517  17.3517  17.3518
    17.5472  17.5472

     occupation numbers 
     1.0000   1.0000   1.0000   1.0000   1.0000   1.0000   1.0000   1.0000
     1.0000   1.0000   1.0000   1.0000   1.0000   1.0000   1.0000   1.0000
     1.0000   1.0000   1.0000   1.0000   1.0000   1.0000   1.0000   1.0000
     1.0000   1.0000   1.0000   1.0000   1.0000   1.0000   1.0000   1.0000
     1.0000   1.0000   1.0000   1.0000   1.0000   1.0000   1.0000   1.0000
     1.0000   1.0000   1.0000   1.0000   1.0000   1.0000   1.0000   1.0000
     1.0000   1.0000   1.0000   1.0000   1.0000   1.0000   1.0000   1.0000
     1.0000   1.0000   1.0000   1.0000   1.0000   1.0000   1.0000   1.0000
     1.0000   1.0000   1.0000   1.0000   1.0000   1.0000   1.0000   1.0000
     1.0000   1.0000   1.0000   1.0000   1.0000   1.0000   1.0000   1.0000
     1.0000   1.0000   1.0000   1.0000   1.0000   1.0000   1.0000   1.0000
     1.0000   1.0000   1.0000   1.0000   1.0000   1.0000   1.0000   1.0000
     1.0000   1.0000   1.0000   1.0000   1.0000   1.0000   1.0000   1.0000
     1.0000   1.0000   1.0000   1.0000   1.0000   1.0000   1.0000   1.0000
     1.0000   1.0000   1.0000   1.0000   1.0000   1.0000   1.0000   1.0000
     1.0000   1.0000   1.0000   1.0000   1.0000   1.0000   1.0000   1.0000
     1.0000   1.0000   1.0000   1.0000   1.0000   1.0000   1.0000   1.0000
     1.0000   1.0000   1.0000   1.0000   1.0000   1.0000   1.0000   1.0000
     1.0000   1.0000   1.0000   1.0000   1.0000   1.0000   1.0000   1.0000
     1.0000   1.0000   1.0000   1.0000   1.0000   1.0000   1.0000   1.0000
     1.0000   1.0000   1.0000   1.0000   1.0000   1.0000   1.0000   1.0000
     1.0000   1.0000   1.0000   1.0000   1.0000   1.0000   1.0000   1.0000
     1.0000   1.0000   1.0000   1.0000   1.0000   1.0000   1.0000   1.0000
     1.0000   1.0000   1.0000   1.0000   1.0000   1.0000   1.0000   1.0000
     1.0000   1.0000   1.0000   1.0000   1.0000   1.0000   1.0000   1.0000
     1.0000   1.0000   1.0000   1.0000   1.0000   1.0000   1.0000   1.0000
     1.0000   1.0000   1.0000   1.0000   1.0000   1.0000   1.0000   1.0000
     1.0000   1.0000   1.0000   1.0000   1.0000   1.0000   1.0000   1.0000
     1.0000   1.0000   1.0000   1.0000   1.0000   1.0000   1.0000   1.0000
     1.0000   1.0000   1.0000   1.0000   1.0000   1.0000   1.0000   1.0000
     1.0275   1.0275   1.0275   1.0275   0.4573   0.4572   0.4567   0.4567
    -0.0008  -0.0008  -0.0008  -0.0008  -0.0000  -0.0000  -0.0000  -0.0000
    -0.0000  -0.0000  -0.0000  -0.0000  -0.0000  -0.0000  -0.0000  -0.0000
    -0.0000  -0.0000  -0.0000  -0.0000  -0.0000  -0.0000  -0.0000  -0.0000
    -0.0000  -0.0000  -0.0000  -0.0000  -0.0000  -0.0000  -0.0000  -0.0000
    -0.0000  -0.0000  -0.0000  -0.0000  -0.0000  -0.0000  -0.0000  -0.0000
    -0.0000  -0.0000  -0.0000  -0.0000  -0.0000  -0.0000  -0.0000  -0.0000
    -0.0000  -0.0000

     the Fermi energy is    11.0153 ev

!    total energy              =   -6554.67880429 Ry
     estimated scf accuracy    <          7.2E-09 Ry
     smearing contrib. (-TS)   =      -0.00138024 Ry
     internal energy E=F+TS    =   -6554.67742405 Ry

     The total energy is F=E-TS. E is the sum of the following terms:
     one-electron contribution =   -5519.31956415 Ry
     hartree contribution      =    3037.09118899 Ry
     xc contribution           =    -965.42430895 Ry
     ewald contribution        =   -3107.44375877 Ry
     Hubbard energy            =       0.41901884 Ry

     total magnetization       =    -0.00 Bohr mag/cell
     absolute magnetization    =     1.65 Bohr mag/cell

     convergence has been achieved in  79 iterations

     Writing all to output data dir ./YBCO6/YBCO6.save/
 
     init_run     :     55.96s CPU     57.60s WALL (       1 calls)
     electrons    :   7372.49s CPU   7592.64s WALL (       1 calls)

     Called by init_run:
     wfcinit      :     51.46s CPU     52.32s WALL (       1 calls)
     wfcinit:atom :      0.20s CPU      0.30s WALL (      12 calls)
     wfcinit:wfcr :     33.91s CPU     34.40s WALL (      12 calls)
     potinit      :      0.09s CPU      0.13s WALL (       1 calls)
     hinit0       :      0.91s CPU      0.93s WALL (       1 calls)

     Called by electrons:
     c_bands      :   5692.98s CPU   5791.26s WALL (      79 calls)
     sum_band     :   1389.81s CPU   1460.57s WALL (      79 calls)
     v_of_rho     :      4.51s CPU      4.64s WALL (      80 calls)
     v_h          :      1.39s CPU      1.48s WALL (      80 calls)
     v_xc         :      3.11s CPU      3.15s WALL (      80 calls)
     newd         :    278.47s CPU    329.58s WALL (      80 calls)
     mix_rho      :      6.97s CPU      7.41s WALL (      79 calls)

     Called by c_bands:
     init_us_2    :     51.64s CPU     51.83s WALL (    1920 calls)
     init_us_2:cp :     51.62s CPU     51.83s WALL (    1920 calls)
     cegterg      :   5430.66s CPU   5527.40s WALL (     948 calls)

     Called by sum_band:
     sum_band:wei :      0.21s CPU      0.21s WALL (      79 calls)
     sum_band:loo :    771.61s CPU    778.36s WALL (      79 calls)
     sum_band:buf :      8.65s CPU      8.65s WALL (     948 calls)
     sum_band:ini :     25.74s CPU     25.74s WALL (     948 calls)
     sum_band:cal :    304.49s CPU    305.81s WALL (     948 calls)
     sum_band:bec :      1.16s CPU      1.17s WALL (     948 calls)
     addusdens    :    585.77s CPU    646.99s WALL (      79 calls)
                                        0.00s GPU  (      79 calls)
     addusd:skk   :      2.44s CPU      3.44s WALL (     474 calls)
                                        0.00s GPU  (     474 calls)

     Called by *egterg:
     cdiaghg      :    273.14s CPU    284.95s WALL (    3852 calls)
     cegterg:over :    523.64s CPU    529.75s WALL (    2904 calls)
     cegterg:upda :    303.41s CPU    313.03s WALL (    2904 calls)
     cegterg:last :    653.99s CPU    657.17s WALL (    1597 calls)
     cdiaghg:chol :      5.50s CPU      5.91s WALL (    3852 calls)
     cdiaghg:inve :      2.86s CPU      3.26s WALL (    3852 calls)
     cdiaghg:para :     57.10s CPU     63.04s WALL (    7704 calls)
     h_psi        :   2791.37s CPU   2833.13s WALL (    3864 calls)
     s_psi        :    681.62s CPU    683.35s WALL (    3876 calls)
     g_psi        :      9.38s CPU      9.41s WALL (    2904 calls)

     Called by h_psi:
     h_psi:calbec :    665.52s CPU    668.20s WALL (    3864 calls)
     vloc_psi     :   1214.47s CPU   1235.86s WALL (    3864 calls)
     add_vuspsi   :    690.57s CPU    690.66s WALL (    3864 calls)
     vhpsi        :    204.02s CPU    208.97s WALL (    3864 calls)

     General routines
     calbec       :   1039.27s CPU   1048.25s WALL (    9636 calls)
     fft          :      7.24s CPU      7.92s WALL (     874 calls)
     ffts         :      0.46s CPU      0.47s WALL (     318 calls)
     fftw         :    834.05s CPU    848.43s WALL ( 1493826 calls)
     interpolate  :      1.87s CPU      1.96s WALL (     160 calls)
     davcio       :      0.01s CPU      0.10s WALL (      12 calls)
 
     Parallel routines

     Hubbard U routines
     new_ns       :     25.95s CPU     26.14s WALL (      79 calls)
     vhpsi        :    204.02s CPU    208.97s WALL (    3864 calls)
 
     PWSCF        :      2h 3m CPU      2h 7m WALL

 
   This run was terminated on:   0:56:51   2Jan2024            

=------------------------------------------------------------------------------=
   JOB DONE.
=------------------------------------------------------------------------------=
