
     Program PWSCF v.7.2 starts on  2Jan2024 at  2: 6: 0 

     This program is part of the open-source Quantum ESPRESSO suite
     for quantum simulation of materials; please cite
         "P. Giannozzi et al., J. Phys.:Condens. Matter 21 395502 (2009);
         "P. Giannozzi et al., J. Phys.:Condens. Matter 29 465901 (2017);
         "P. Giannozzi et al., J. Chem. Phys. 152 154105 (2020);
          URL http://www.quantum-espresso.org", 
     in publications or presentations arising from this work. More details at
     http://www.quantum-espresso.org/quote

     Parallel version (MPI), running on     4 processors

     MPI processes distributed on     1 nodes
     3921 MiB available memory on the printing compute node when the environment starts
 
     Waiting for input...
     Reading input from standard input
Warning: card &CELL ignored
Warning: card / ignored

     Current dimensions of program PWSCF are:
     Max number of different atomic species (ntypx) = 10
     Max number of k-points (npk) =  40000
     Max angular momentum in pseudopotentials (lmaxx) =  4
     Found identity + ( -0.5000 -0.5000  0.0000) symmetry
     This is a supercell, fractional translations are disabled
 
     R & G space division:  proc/nbgrp/npool/nimage =       4
     Subspace diagonalization in iterative solution of the eigenvalue problem:
     one sub-group per band group will be used
     custom distributed-memory algorithm (size of sub-group:  2*  2 procs)

 
     Parallelization info
     --------------------
     sticks:   dense  smooth     PW     G-vecs:    dense   smooth      PW
     Min        2210     984    271               238514    70654   10061
     Max        2211     985    272               238519    70656   10062
     Sum        8841    3937   1085               954065   282619   40245
 
     Using Slab Decomposition
 


     bravais-lattice index     =            6
     lattice parameter (alat)  =      14.3459  a.u.
     unit-cell volume          =    4502.1906 (a.u.)^3
     number of atoms/cell      =           48
     number of atomic types    =            6
     number of electrons       =       496.00
     number of Kohn-Sham states=          298
     kinetic-energy cutoff     =      60.0000  Ry
     charge density cutoff     =     540.0000  Ry
     scf convergence threshold =      1.0E-08
     mixing beta               =       0.1000
     number of iterations used =            8  plain     mixing
     Exchange-correlation= SLA  PZ   NOGX NOGC
                           (   1   1   0   0   0   0   0)
     Hubbard projectors: ortho-atomic
     Hubbard parameters of DFT+U (Dudarev formulation) in eV:
     U(Cu1-3d) =  2.5000
     U(Cu2-3d) =  2.5000

     Internal variables: lda_plus_u = T, lda_plus_u_kind = 0

     celldm(1)=  14.345919  celldm(2)=   0.000000  celldm(3)=   1.524891
     celldm(4)=   0.000000  celldm(5)=   0.000000  celldm(6)=   0.000000

     crystal axes: (cart. coord. in units of alat)
               a(1) = (   1.000000   0.000000   0.000000 )  
               a(2) = (   0.000000   1.000000   0.000000 )  
               a(3) = (   0.000000   0.000000   1.524891 )  

     reciprocal axes: (cart. coord. in units 2 pi/alat)
               b(1) = (  1.000000  0.000000  0.000000 )  
               b(2) = (  0.000000  1.000000  0.000000 )  
               b(3) = (  0.000000  0.000000  0.655785 )  


     PseudoPot. # 1 for Y  read from file:
     ~/q-e/pseudo/gbrv_lda/y_lda_v1.4.uspp.F.UPF
     MD5 check sum: Not computed, couldn't open file
     Pseudo is Ultrasoft + core correction, Zval = 11.0
     Generated by new atomic code, or converted to UPF format
     Using radial grid of  885 points,  6 beta functions with: 
                l(1) =   0
                l(2) =   0
                l(3) =   1
                l(4) =   1
                l(5) =   2
                l(6) =   2
     Q(r) pseudized with  8 coefficients,  rinner =    1.200   1.200   1.200
                                                       1.200   1.200

     PseudoPot. # 2 for Ba read from file:
     ~/q-e/pseudo/gbrv_lda/ba_lda_v1.uspp.F.UPF
     MD5 check sum: Not computed, couldn't open file
     Pseudo is Ultrasoft + core correction, Zval = 10.0
     Generated by new atomic code, or converted to UPF format
     Using radial grid of  907 points,  7 beta functions with: 
                l(1) =   0
                l(2) =   0
                l(3) =   1
                l(4) =   1
                l(5) =   2
                l(6) =   2
                l(7) =   3
     Q(r) pseudized with  6 coefficients,  rinner =    1.700   1.700   1.700
                                                       1.700   1.700   1.700
                                                       1.700

     PseudoPot. # 3 for Cu read from file:
     ~/q-e/pseudo/gbrv_lda/cu_lda_v1.2.uspp.F.UPF
     MD5 check sum: Not computed, couldn't open file
     Pseudo is Ultrasoft + core correction, Zval = 19.0
     Generated by new atomic code, or converted to UPF format
     Using radial grid of  867 points,  6 beta functions with: 
                l(1) =   0
                l(2) =   0
                l(3) =   1
                l(4) =   1
                l(5) =   2
                l(6) =   2
     Q(r) pseudized with  8 coefficients,  rinner =    1.150   1.150   1.150
                                                       1.150   1.150

     PseudoPot. # 4 for Cu read from file:
     ~/q-e/pseudo/gbrv_lda/cu_lda_v1.2.uspp.F.UPF
     MD5 check sum: Not computed, couldn't open file
     Pseudo is Ultrasoft + core correction, Zval = 19.0
     Generated by new atomic code, or converted to UPF format
     Using radial grid of  867 points,  6 beta functions with: 
                l(1) =   0
                l(2) =   0
                l(3) =   1
                l(4) =   1
                l(5) =   2
                l(6) =   2
     Q(r) pseudized with  8 coefficients,  rinner =    1.150   1.150   1.150
                                                       1.150   1.150

     PseudoPot. # 5 for Cu read from file:
     ~/q-e/pseudo/gbrv_lda/cu_lda_v1.2.uspp.F.UPF
     MD5 check sum: Not computed, couldn't open file
     Pseudo is Ultrasoft + core correction, Zval = 19.0
     Generated by new atomic code, or converted to UPF format
     Using radial grid of  867 points,  6 beta functions with: 
                l(1) =   0
                l(2) =   0
                l(3) =   1
                l(4) =   1
                l(5) =   2
                l(6) =   2
     Q(r) pseudized with  8 coefficients,  rinner =    1.150   1.150   1.150
                                                       1.150   1.150

     PseudoPot. # 6 for O  read from file:
     ~/q-e/pseudo/gbrv_lda/o_lda_v1.2.uspp.F.UPF
     MD5 check sum: Not computed, couldn't open file
     Pseudo is Ultrasoft + core correction, Zval =  6.0
     Generated by new atomic code, or converted to UPF format
     Using radial grid of  737 points,  5 beta functions with: 
                l(1) =   0
                l(2) =   0
                l(3) =   1
                l(4) =   1
                l(5) =   2
     Q(r) pseudized with  8 coefficients,  rinner =    0.900   0.900   0.900
                                                       0.900   0.900

     atomic species   valence    mass     pseudopotential
     Y                11.00    88.90584     Y ( 1.00)
     Ba               10.00   137.32700     Ba( 1.00)
     Cu               19.00    63.54600     Cu( 1.00)
     Cu1              19.00    63.54600     Cu( 1.00)
     Cu2              19.00    63.54600     Cu( 1.00)
     O                 6.00    15.99900     O ( 1.00)

     Starting magnetic structure 
     atomic species   magnetization
     Y               0.000
     Ba              0.000
     Cu              0.000
     Cu1             0.100
     Cu2            -0.100
     O               0.000

      8 Sym. Ops. (no inversion) found


                                    s                        frac. trans.

      isym =  1     identity                                     

 cryst.   s( 1) = (     1          0          0      )
                  (     0          1          0      )
                  (     0          0          1      )

 cart.    s( 1) = (  1.0000000  0.0000000  0.0000000 )
                  (  0.0000000  1.0000000  0.0000000 )
                  (  0.0000000  0.0000000  1.0000000 )


      isym =  2     180 deg rotation - cart. axis [0,0,1]        

 cryst.   s( 2) = (    -1          0          0      )
                  (     0         -1          0      )
                  (     0          0          1      )

 cart.    s( 2) = ( -1.0000000  0.0000000  0.0000000 )
                  (  0.0000000 -1.0000000  0.0000000 )
                  (  0.0000000  0.0000000  1.0000000 )


      isym =  3      90 deg rotation - cart. axis [0,0,-1]       

 cryst.   s( 3) = (     0         -1          0      )
                  (     1          0          0      )
                  (     0          0          1      )

 cart.    s( 3) = (  0.0000000  1.0000000  0.0000000 )
                  ( -1.0000000  0.0000000  0.0000000 )
                  (  0.0000000  0.0000000  1.0000000 )


      isym =  4      90 deg rotation - cart. axis [0,0,1]        

 cryst.   s( 4) = (     0          1          0      )
                  (    -1          0          0      )
                  (     0          0          1      )

 cart.    s( 4) = (  0.0000000 -1.0000000  0.0000000 )
                  (  1.0000000  0.0000000  0.0000000 )
                  (  0.0000000  0.0000000  1.0000000 )


      isym =  5     inv. 180 deg rotation - cart. axis [0,1,0]   

 cryst.   s( 5) = (     1          0          0      )
                  (     0         -1          0      )
                  (     0          0          1      )

 cart.    s( 5) = (  1.0000000  0.0000000  0.0000000 )
                  (  0.0000000 -1.0000000  0.0000000 )
                  (  0.0000000  0.0000000  1.0000000 )


      isym =  6     inv. 180 deg rotation - cart. axis [1,0,0]   

 cryst.   s( 6) = (    -1          0          0      )
                  (     0          1          0      )
                  (     0          0          1      )

 cart.    s( 6) = ( -1.0000000  0.0000000  0.0000000 )
                  (  0.0000000  1.0000000  0.0000000 )
                  (  0.0000000  0.0000000  1.0000000 )


      isym =  7     inv. 180 deg rotation - cart. axis [1,1,0]   

 cryst.   s( 7) = (     0         -1          0      )
                  (    -1          0          0      )
                  (     0          0          1      )

 cart.    s( 7) = (  0.0000000 -1.0000000  0.0000000 )
                  ( -1.0000000  0.0000000  0.0000000 )
                  (  0.0000000  0.0000000  1.0000000 )


      isym =  8     inv. 180 deg rotation - cart. axis [1,-1,0]  

 cryst.   s( 8) = (     0          1          0      )
                  (     1          0          0      )
                  (     0          0          1      )

 cart.    s( 8) = (  0.0000000  1.0000000  0.0000000 )
                  (  1.0000000  0.0000000  0.0000000 )
                  (  0.0000000  0.0000000  1.0000000 )


     point group C_4v (4mm) 
     there are  5 classes
     the character table:

       E     2C4   C2    2s_v  2s_d 
A_1    1.00  1.00  1.00  1.00  1.00
A_2    1.00  1.00  1.00 -1.00 -1.00
B_1    1.00 -1.00  1.00  1.00 -1.00
B_2    1.00 -1.00  1.00 -1.00  1.00
E      2.00  0.00 -2.00  0.00  0.00

     the symmetry operations in each class and the name of the first element:

     E        1
          identity                                               
     2C4      3    4
           90 deg rotation - cart. axis [0,0,-1]                 
     C2       2
          180 deg rotation - cart. axis [0,0,1]                  
     2s_v     5    6
          inv. 180 deg rotation - cart. axis [0,1,0]             
     2s_d     7    8
          inv. 180 deg rotation - cart. axis [1,1,0]             

   Cartesian axes

     site n.     atom                  positions (alat units)
         1        Y      tau(   1) = (   0.2500000   0.2500000   0.7624455  )
         2        Y      tau(   2) = (   0.2500000   0.7500000   0.7624455  )
         3        Y      tau(   3) = (   0.7500000   0.2500000   0.7624455  )
         4        Y      tau(   4) = (   0.7500000   0.7500000   0.7624455  )
         5        Ba     tau(   5) = (   0.2500000   0.2500000   0.2966571  )
         6        Ba     tau(   6) = (   0.2500000   0.2500000   1.2282339  )
         7        Ba     tau(   7) = (   0.2500000   0.7500000   0.2966571  )
         8        Ba     tau(   8) = (   0.2500000   0.7500000   1.2282339  )
         9        Ba     tau(   9) = (   0.7500000   0.2500000   0.2966571  )
        10        Ba     tau(  10) = (   0.7500000   0.2500000   1.2282339  )
        11        Ba     tau(  11) = (   0.7500000   0.7500000   0.2966571  )
        12        Ba     tau(  12) = (   0.7500000   0.7500000   1.2282339  )
        13        Cu     tau(  13) = (   0.0000000   0.0000000   0.0000000  )
        14        Cu1    tau(  14) = (   0.0000000   0.0000000   0.5526369  )
        15        Cu2    tau(  15) = (   0.0000000   0.0000000   0.9722541  )
        16        Cu     tau(  16) = (   0.0000000   0.5000000   0.0000000  )
        17        Cu2    tau(  17) = (   0.0000000   0.5000000   0.5526369  )
        18        Cu1    tau(  18) = (   0.0000000   0.5000000   0.9722541  )
        19        Cu     tau(  19) = (   0.5000000   0.0000000   0.0000000  )
        20        Cu2    tau(  20) = (   0.5000000   0.0000000   0.5526369  )
        21        Cu1    tau(  21) = (   0.5000000   0.0000000   0.9722541  )
        22        Cu     tau(  22) = (   0.5000000   0.5000000   0.0000000  )
        23        Cu1    tau(  23) = (   0.5000000   0.5000000   0.5526369  )
        24        Cu2    tau(  24) = (   0.5000000   0.5000000   0.9722541  )
        25        O      tau(  25) = (   0.0000000   0.0000000   0.2314064  )
        26        O      tau(  26) = (   0.0000000   0.0000000   1.2934846  )
        27        O      tau(  27) = (   0.5000000   0.0000000   0.2314064  )
        28        O      tau(  28) = (   0.5000000   0.0000000   1.2934846  )
        29        O      tau(  29) = (   0.0000000   0.5000000   0.2314064  )
        30        O      tau(  30) = (   0.0000000   0.5000000   1.2934846  )
        31        O      tau(  31) = (   0.5000000   0.5000000   0.2314064  )
        32        O      tau(  32) = (   0.5000000   0.5000000   1.2934846  )
        33        O      tau(  33) = (   0.2500000   0.0000000   0.5769788  )
        34        O      tau(  34) = (   0.2500000   0.0000000   0.9479122  )
        35        O      tau(  35) = (   0.2500000   0.5000000   0.5769788  )
        36        O      tau(  36) = (   0.2500000   0.5000000   0.9479122  )
        37        O      tau(  37) = (   0.7500000   0.0000000   0.5769788  )
        38        O      tau(  38) = (   0.7500000   0.0000000   0.9479122  )
        39        O      tau(  39) = (   0.7500000   0.5000000   0.5769788  )
        40        O      tau(  40) = (   0.7500000   0.5000000   0.9479122  )
        41        O      tau(  41) = (   0.0000000   0.2500000   0.5769788  )
        42        O      tau(  42) = (   0.0000000   0.2500000   0.9479122  )
        43        O      tau(  43) = (   0.5000000   0.2500000   0.5769788  )
        44        O      tau(  44) = (   0.5000000   0.2500000   0.9479122  )
        45        O      tau(  45) = (   0.0000000   0.7500000   0.5769788  )
        46        O      tau(  46) = (   0.0000000   0.7500000   0.9479122  )
        47        O      tau(  47) = (   0.5000000   0.7500000   0.5769788  )
        48        O      tau(  48) = (   0.5000000   0.7500000   0.9479122  )

   Crystallographic axes

     site n.     atom                  positions (cryst. coord.)
         1        Y      tau(   1) = (  0.2500000  0.2500000  0.5000000  )
         2        Y      tau(   2) = (  0.2500000  0.7500000  0.5000000  )
         3        Y      tau(   3) = (  0.7500000  0.2500000  0.5000000  )
         4        Y      tau(   4) = (  0.7500000  0.7500000  0.5000000  )
         5        Ba     tau(   5) = (  0.2500000  0.2500000  0.1945431  )
         6        Ba     tau(   6) = (  0.2500000  0.2500000  0.8054569  )
         7        Ba     tau(   7) = (  0.2500000  0.7500000  0.1945431  )
         8        Ba     tau(   8) = (  0.2500000  0.7500000  0.8054569  )
         9        Ba     tau(   9) = (  0.7500000  0.2500000  0.1945431  )
        10        Ba     tau(  10) = (  0.7500000  0.2500000  0.8054569  )
        11        Ba     tau(  11) = (  0.7500000  0.7500000  0.1945431  )
        12        Ba     tau(  12) = (  0.7500000  0.7500000  0.8054569  )
        13        Cu     tau(  13) = (  0.0000000  0.0000000  0.0000000  )
        14        Cu1    tau(  14) = (  0.0000000  0.0000000  0.3624108  )
        15        Cu2    tau(  15) = (  0.0000000  0.0000000  0.6375892  )
        16        Cu     tau(  16) = (  0.0000000  0.5000000  0.0000000  )
        17        Cu2    tau(  17) = (  0.0000000  0.5000000  0.3624108  )
        18        Cu1    tau(  18) = (  0.0000000  0.5000000  0.6375892  )
        19        Cu     tau(  19) = (  0.5000000  0.0000000  0.0000000  )
        20        Cu2    tau(  20) = (  0.5000000  0.0000000  0.3624108  )
        21        Cu1    tau(  21) = (  0.5000000  0.0000000  0.6375892  )
        22        Cu     tau(  22) = (  0.5000000  0.5000000  0.0000000  )
        23        Cu1    tau(  23) = (  0.5000000  0.5000000  0.3624108  )
        24        Cu2    tau(  24) = (  0.5000000  0.5000000  0.6375892  )
        25        O      tau(  25) = (  0.0000000  0.0000000  0.1517528  )
        26        O      tau(  26) = (  0.0000000  0.0000000  0.8482472  )
        27        O      tau(  27) = (  0.5000000  0.0000000  0.1517528  )
        28        O      tau(  28) = (  0.5000000  0.0000000  0.8482472  )
        29        O      tau(  29) = (  0.0000000  0.5000000  0.1517528  )
        30        O      tau(  30) = (  0.0000000  0.5000000  0.8482472  )
        31        O      tau(  31) = (  0.5000000  0.5000000  0.1517528  )
        32        O      tau(  32) = (  0.5000000  0.5000000  0.8482472  )
        33        O      tau(  33) = (  0.2500000  0.0000000  0.3783738  )
        34        O      tau(  34) = (  0.2500000  0.0000000  0.6216262  )
        35        O      tau(  35) = (  0.2500000  0.5000000  0.3783738  )
        36        O      tau(  36) = (  0.2500000  0.5000000  0.6216262  )
        37        O      tau(  37) = (  0.7500000  0.0000000  0.3783738  )
        38        O      tau(  38) = (  0.7500000  0.0000000  0.6216262  )
        39        O      tau(  39) = (  0.7500000  0.5000000  0.3783738  )
        40        O      tau(  40) = (  0.7500000  0.5000000  0.6216262  )
        41        O      tau(  41) = (  0.0000000  0.2500000  0.3783738  )
        42        O      tau(  42) = (  0.0000000  0.2500000  0.6216262  )
        43        O      tau(  43) = (  0.5000000  0.2500000  0.3783738  )
        44        O      tau(  44) = (  0.5000000  0.2500000  0.6216262  )
        45        O      tau(  45) = (  0.0000000  0.7500000  0.3783738  )
        46        O      tau(  46) = (  0.0000000  0.7500000  0.6216262  )
        47        O      tau(  47) = (  0.5000000  0.7500000  0.3783738  )
        48        O      tau(  48) = (  0.5000000  0.7500000  0.6216262  )

     number of k points=    12  Methfessel-Paxton smearing, width (Ry)=  0.0100
                       cart. coord. in units 2pi/alat
        k(    1) = (   0.0000000   0.0000000   0.0000000), wk =   0.0312500
        k(    2) = (   0.0000000   0.0000000  -0.3278923), wk =   0.0312500
        k(    3) = (   0.0000000   0.2500000   0.0000000), wk =   0.1250000
        k(    4) = (   0.0000000   0.2500000  -0.3278923), wk =   0.1250000
        k(    5) = (   0.0000000  -0.5000000   0.0000000), wk =   0.0625000
        k(    6) = (   0.0000000  -0.5000000  -0.3278923), wk =   0.0625000
        k(    7) = (   0.2500000   0.2500000   0.0000000), wk =   0.1250000
        k(    8) = (   0.2500000   0.2500000  -0.3278923), wk =   0.1250000
        k(    9) = (   0.2500000  -0.5000000   0.0000000), wk =   0.1250000
        k(   10) = (   0.2500000  -0.5000000  -0.3278923), wk =   0.1250000
        k(   11) = (  -0.5000000  -0.5000000   0.0000000), wk =   0.0312500
        k(   12) = (  -0.5000000  -0.5000000  -0.3278923), wk =   0.0312500

                       cryst. coord.
        k(    1) = (   0.0000000   0.0000000   0.0000000), wk =   0.0312500
        k(    2) = (   0.0000000   0.0000000  -0.5000000), wk =   0.0312500
        k(    3) = (   0.0000000   0.2500000   0.0000000), wk =   0.1250000
        k(    4) = (   0.0000000   0.2500000  -0.5000000), wk =   0.1250000
        k(    5) = (   0.0000000  -0.5000000   0.0000000), wk =   0.0625000
        k(    6) = (   0.0000000  -0.5000000  -0.5000000), wk =   0.0625000
        k(    7) = (   0.2500000   0.2500000   0.0000000), wk =   0.1250000
        k(    8) = (   0.2500000   0.2500000  -0.5000000), wk =   0.1250000
        k(    9) = (   0.2500000  -0.5000000   0.0000000), wk =   0.1250000
        k(   10) = (   0.2500000  -0.5000000  -0.5000000), wk =   0.1250000
        k(   11) = (  -0.5000000  -0.5000000   0.0000000), wk =   0.0312500
        k(   12) = (  -0.5000000  -0.5000000  -0.5000000), wk =   0.0312500

     Dense  grid:   954065 G-vectors     FFT dimensions: ( 108, 108, 162)

     Smooth grid:   282619 G-vectors     FFT dimensions: (  72,  72, 108)

     Dynamical RAM for                 wfc:      40.16 MB

     Dynamical RAM for     wfc (w. buffer):    1004.12 MB

     Dynamical RAM for             U proj.:       5.39 MB

     Dynamical RAM for  U proj. (w. buff.):     134.78 MB

     Dynamical RAM for           str. fact:      21.84 MB

     Dynamical RAM for           local pot:       0.00 MB

     Dynamical RAM for          nlocal pot:     107.82 MB

     Dynamical RAM for                qrad:      20.88 MB

     Dynamical RAM for          rho,v,vnew:      43.73 MB

     Dynamical RAM for               rhoin:      14.58 MB

     Dynamical RAM for            rho*nmix:     116.46 MB

     Dynamical RAM for           G-vectors:      14.19 MB

     Dynamical RAM for          h,s,v(r/c):       4.07 MB

     Dynamical RAM for          <psi|beta>:       3.64 MB

     Dynamical RAM for                 psi:      80.33 MB

     Dynamical RAM for                hpsi:      80.33 MB

     Dynamical RAM for                spsi:      80.33 MB

     Dynamical RAM for      wfcinit/wfcrot:     113.79 MB

     Dynamical RAM for           addusdens:    1372.08 MB

     Estimated static dynamical RAM per process >       1.38 GB

     Estimated max dynamical RAM per process >       2.83 GB

     Estimated total dynamical RAM >      11.32 GB

     Check: negative core charge=   -0.000002
     Generating pointlists ...
     new r_m :   0.1284 (alat units)  1.8421 (a.u.) for type    1
     new r_m :   0.1483 (alat units)  2.1276 (a.u.) for type    2
     new r_m :   0.0955 (alat units)  1.3694 (a.u.) for type    3
     new r_m :   0.1036 (alat units)  1.4864 (a.u.) for type    4
     new r_m :   0.1036 (alat units)  1.4864 (a.u.) for type    5
     new r_m :   0.0955 (alat units)  1.3694 (a.u.) for type    6

     Initial potential from superposition of free atoms

     starting charge     483.8832, renormalised to     496.0000

     negative rho (up, down):  4.013E-01 4.013E-01

     HUBBARD ENERGY =    0.8820  (Ry)

     STARTING HUBBARD OCCUPATIONS:

     =================== HUBBARD OCCUPATIONS ===================
     ------------------------ ATOM   14 ------------------------
     Tr[ns( 14)] (up, down, total) =   5.00000  3.00000  8.00000
     Atomic magnetic moment for atom  14 =   2.00000
     SPIN  1
     eigenvalues:
       1.000  1.000  1.000  1.000  1.000
     eigenvectors (columns):
       1.000  0.000  0.000  0.000  0.000
       0.000  1.000  0.000  0.000  0.000
       0.000  0.000  1.000  0.000  0.000
       0.000  0.000  0.000  1.000  0.000
       0.000  0.000  0.000  0.000  1.000
     occupation matrix ns (before diag.):
       1.000  0.000  0.000  0.000  0.000
       0.000  1.000  0.000  0.000  0.000
       0.000  0.000  1.000  0.000  0.000
       0.000  0.000  0.000  1.000  0.000
       0.000  0.000  0.000  0.000  1.000
     SPIN  2
     eigenvalues:
       0.600  0.600  0.600  0.600  0.600
     eigenvectors (columns):
       1.000  0.000  0.000  0.000  0.000
       0.000  1.000  0.000  0.000  0.000
       0.000  0.000  1.000  0.000  0.000
       0.000  0.000  0.000  1.000  0.000
       0.000  0.000  0.000  0.000  1.000
     occupation matrix ns (before diag.):
       0.600  0.000  0.000  0.000  0.000
       0.000  0.600  0.000  0.000  0.000
       0.000  0.000  0.600  0.000  0.000
       0.000  0.000  0.000  0.600  0.000
       0.000  0.000  0.000  0.000  0.600
     ------------------------ ATOM   15 ------------------------
     Tr[ns( 15)] (up, down, total) =   3.00000  5.00000  8.00000
     Atomic magnetic moment for atom  15 =  -2.00000
     SPIN  1
     eigenvalues:
       0.600  0.600  0.600  0.600  0.600
     eigenvectors (columns):
       1.000  0.000  0.000  0.000  0.000
       0.000  1.000  0.000  0.000  0.000
       0.000  0.000  1.000  0.000  0.000
       0.000  0.000  0.000  1.000  0.000
       0.000  0.000  0.000  0.000  1.000
     occupation matrix ns (before diag.):
       0.600  0.000  0.000  0.000  0.000
       0.000  0.600  0.000  0.000  0.000
       0.000  0.000  0.600  0.000  0.000
       0.000  0.000  0.000  0.600  0.000
       0.000  0.000  0.000  0.000  0.600
     SPIN  2
     eigenvalues:
       1.000  1.000  1.000  1.000  1.000
     eigenvectors (columns):
       1.000  0.000  0.000  0.000  0.000
       0.000  1.000  0.000  0.000  0.000
       0.000  0.000  1.000  0.000  0.000
       0.000  0.000  0.000  1.000  0.000
       0.000  0.000  0.000  0.000  1.000
     occupation matrix ns (before diag.):
       1.000  0.000  0.000  0.000  0.000
       0.000  1.000  0.000  0.000  0.000
       0.000  0.000  1.000  0.000  0.000
       0.000  0.000  0.000  1.000  0.000
       0.000  0.000  0.000  0.000  1.000
     ------------------------ ATOM   17 ------------------------
     Tr[ns( 17)] (up, down, total) =   3.00000  5.00000  8.00000
     Atomic magnetic moment for atom  17 =  -2.00000
     SPIN  1
     eigenvalues:
       0.600  0.600  0.600  0.600  0.600
     eigenvectors (columns):
       1.000  0.000  0.000  0.000  0.000
       0.000  1.000  0.000  0.000  0.000
       0.000  0.000  1.000  0.000  0.000
       0.000  0.000  0.000  1.000  0.000
       0.000  0.000  0.000  0.000  1.000
     occupation matrix ns (before diag.):
       0.600  0.000  0.000  0.000  0.000
       0.000  0.600  0.000  0.000  0.000
       0.000  0.000  0.600  0.000  0.000
       0.000  0.000  0.000  0.600  0.000
       0.000  0.000  0.000  0.000  0.600
     SPIN  2
     eigenvalues:
       1.000  1.000  1.000  1.000  1.000
     eigenvectors (columns):
       1.000  0.000  0.000  0.000  0.000
       0.000  1.000  0.000  0.000  0.000
       0.000  0.000  1.000  0.000  0.000
       0.000  0.000  0.000  1.000  0.000
       0.000  0.000  0.000  0.000  1.000
     occupation matrix ns (before diag.):
       1.000  0.000  0.000  0.000  0.000
       0.000  1.000  0.000  0.000  0.000
       0.000  0.000  1.000  0.000  0.000
       0.000  0.000  0.000  1.000  0.000
       0.000  0.000  0.000  0.000  1.000
     ------------------------ ATOM   18 ------------------------
     Tr[ns( 18)] (up, down, total) =   5.00000  3.00000  8.00000
     Atomic magnetic moment for atom  18 =   2.00000
     SPIN  1
     eigenvalues:
       1.000  1.000  1.000  1.000  1.000
     eigenvectors (columns):
       1.000  0.000  0.000  0.000  0.000
       0.000  1.000  0.000  0.000  0.000
       0.000  0.000  1.000  0.000  0.000
       0.000  0.000  0.000  1.000  0.000
       0.000  0.000  0.000  0.000  1.000
     occupation matrix ns (before diag.):
       1.000  0.000  0.000  0.000  0.000
       0.000  1.000  0.000  0.000  0.000
       0.000  0.000  1.000  0.000  0.000
       0.000  0.000  0.000  1.000  0.000
       0.000  0.000  0.000  0.000  1.000
     SPIN  2
     eigenvalues:
       0.600  0.600  0.600  0.600  0.600
     eigenvectors (columns):
       1.000  0.000  0.000  0.000  0.000
       0.000  1.000  0.000  0.000  0.000
       0.000  0.000  1.000  0.000  0.000
       0.000  0.000  0.000  1.000  0.000
       0.000  0.000  0.000  0.000  1.000
     occupation matrix ns (before diag.):
       0.600  0.000  0.000  0.000  0.000
       0.000  0.600  0.000  0.000  0.000
       0.000  0.000  0.600  0.000  0.000
       0.000  0.000  0.000  0.600  0.000
       0.000  0.000  0.000  0.000  0.600
     ------------------------ ATOM   20 ------------------------
     Tr[ns( 20)] (up, down, total) =   3.00000  5.00000  8.00000
     Atomic magnetic moment for atom  20 =  -2.00000
     SPIN  1
     eigenvalues:
       0.600  0.600  0.600  0.600  0.600
     eigenvectors (columns):
       1.000  0.000  0.000  0.000  0.000
       0.000  1.000  0.000  0.000  0.000
       0.000  0.000  1.000  0.000  0.000
       0.000  0.000  0.000  1.000  0.000
       0.000  0.000  0.000  0.000  1.000
     occupation matrix ns (before diag.):
       0.600  0.000  0.000  0.000  0.000
       0.000  0.600  0.000  0.000  0.000
       0.000  0.000  0.600  0.000  0.000
       0.000  0.000  0.000  0.600  0.000
       0.000  0.000  0.000  0.000  0.600
     SPIN  2
     eigenvalues:
       1.000  1.000  1.000  1.000  1.000
     eigenvectors (columns):
       1.000  0.000  0.000  0.000  0.000
       0.000  1.000  0.000  0.000  0.000
       0.000  0.000  1.000  0.000  0.000
       0.000  0.000  0.000  1.000  0.000
       0.000  0.000  0.000  0.000  1.000
     occupation matrix ns (before diag.):
       1.000  0.000  0.000  0.000  0.000
       0.000  1.000  0.000  0.000  0.000
       0.000  0.000  1.000  0.000  0.000
       0.000  0.000  0.000  1.000  0.000
       0.000  0.000  0.000  0.000  1.000
     ------------------------ ATOM   21 ------------------------
     Tr[ns( 21)] (up, down, total) =   5.00000  3.00000  8.00000
     Atomic magnetic moment for atom  21 =   2.00000
     SPIN  1
     eigenvalues:
       1.000  1.000  1.000  1.000  1.000
     eigenvectors (columns):
       1.000  0.000  0.000  0.000  0.000
       0.000  1.000  0.000  0.000  0.000
       0.000  0.000  1.000  0.000  0.000
       0.000  0.000  0.000  1.000  0.000
       0.000  0.000  0.000  0.000  1.000
     occupation matrix ns (before diag.):
       1.000  0.000  0.000  0.000  0.000
       0.000  1.000  0.000  0.000  0.000
       0.000  0.000  1.000  0.000  0.000
       0.000  0.000  0.000  1.000  0.000
       0.000  0.000  0.000  0.000  1.000
     SPIN  2
     eigenvalues:
       0.600  0.600  0.600  0.600  0.600
     eigenvectors (columns):
       1.000  0.000  0.000  0.000  0.000
       0.000  1.000  0.000  0.000  0.000
       0.000  0.000  1.000  0.000  0.000
       0.000  0.000  0.000  1.000  0.000
       0.000  0.000  0.000  0.000  1.000
     occupation matrix ns (before diag.):
       0.600  0.000  0.000  0.000  0.000
       0.000  0.600  0.000  0.000  0.000
       0.000  0.000  0.600  0.000  0.000
       0.000  0.000  0.000  0.600  0.000
       0.000  0.000  0.000  0.000  0.600
     ------------------------ ATOM   23 ------------------------
     Tr[ns( 23)] (up, down, total) =   5.00000  3.00000  8.00000
     Atomic magnetic moment for atom  23 =   2.00000
     SPIN  1
     eigenvalues:
       1.000  1.000  1.000  1.000  1.000
     eigenvectors (columns):
       1.000  0.000  0.000  0.000  0.000
       0.000  1.000  0.000  0.000  0.000
       0.000  0.000  1.000  0.000  0.000
       0.000  0.000  0.000  1.000  0.000
       0.000  0.000  0.000  0.000  1.000
     occupation matrix ns (before diag.):
       1.000  0.000  0.000  0.000  0.000
       0.000  1.000  0.000  0.000  0.000
       0.000  0.000  1.000  0.000  0.000
       0.000  0.000  0.000  1.000  0.000
       0.000  0.000  0.000  0.000  1.000
     SPIN  2
     eigenvalues:
       0.600  0.600  0.600  0.600  0.600
     eigenvectors (columns):
       1.000  0.000  0.000  0.000  0.000
       0.000  1.000  0.000  0.000  0.000
       0.000  0.000  1.000  0.000  0.000
       0.000  0.000  0.000  1.000  0.000
       0.000  0.000  0.000  0.000  1.000
     occupation matrix ns (before diag.):
       0.600  0.000  0.000  0.000  0.000
       0.000  0.600  0.000  0.000  0.000
       0.000  0.000  0.600  0.000  0.000
       0.000  0.000  0.000  0.600  0.000
       0.000  0.000  0.000  0.000  0.600
     ------------------------ ATOM   24 ------------------------
     Tr[ns( 24)] (up, down, total) =   3.00000  5.00000  8.00000
     Atomic magnetic moment for atom  24 =  -2.00000
     SPIN  1
     eigenvalues:
       0.600  0.600  0.600  0.600  0.600
     eigenvectors (columns):
       1.000  0.000  0.000  0.000  0.000
       0.000  1.000  0.000  0.000  0.000
       0.000  0.000  1.000  0.000  0.000
       0.000  0.000  0.000  1.000  0.000
       0.000  0.000  0.000  0.000  1.000
     occupation matrix ns (before diag.):
       0.600  0.000  0.000  0.000  0.000
       0.000  0.600  0.000  0.000  0.000
       0.000  0.000  0.600  0.000  0.000
       0.000  0.000  0.000  0.600  0.000
       0.000  0.000  0.000  0.000  0.600
     SPIN  2
     eigenvalues:
       1.000  1.000  1.000  1.000  1.000
     eigenvectors (columns):
       1.000  0.000  0.000  0.000  0.000
       0.000  1.000  0.000  0.000  0.000
       0.000  0.000  1.000  0.000  0.000
       0.000  0.000  0.000  1.000  0.000
       0.000  0.000  0.000  0.000  1.000
     occupation matrix ns (before diag.):
       1.000  0.000  0.000  0.000  0.000
       0.000  1.000  0.000  0.000  0.000
       0.000  0.000  1.000  0.000  0.000
       0.000  0.000  0.000  1.000  0.000
       0.000  0.000  0.000  0.000  1.000

     Number of occupied Hubbard levels =   64.0000

     Atomic wfc used for Hubbard projectors are orthogonalized

     Starting wfcs are  408 randomized atomic wfcs

     total cpu time spent up to now is      111.5 secs

     Self-consistent Calculation

     iteration #  1     ecut=    60.00 Ry     beta= 0.10
     Davidson diagonalization with overlap

---- Real-time Memory Report at c_bands before calling an iterative solver
          1646 MiB given to the printing process from OS
             0 MiB allocation reported by mallinfo(arena+hblkhd)
           693 MiB available memory on the node where the printing process lives
------------------
     ethr =  1.00E-02,  avg # of iterations =  2.0

     =================== HUBBARD OCCUPATIONS ===================
     ------------------------ ATOM   14 ------------------------
     Tr[ns( 14)] (up, down, total) =   4.86306  4.11523  8.97830
     Atomic magnetic moment for atom  14 =   0.74783
     SPIN  1
     eigenvalues:
       0.954  0.957  0.982  0.982  0.988
     eigenvectors (columns):
      -0.000  1.000  0.000  0.000  0.000
      -0.000  0.000 -0.317 -0.948  0.000
      -0.000  0.000 -0.948  0.317  0.000
       1.000  0.000 -0.000 -0.000 -0.000
       0.000 -0.000  0.000  0.000  1.000
     occupation matrix ns (before diag.):
       0.957 -0.000 -0.000  0.000  0.000
      -0.000  0.982 -0.000  0.000  0.000
      -0.000 -0.000  0.982  0.000  0.000
       0.000  0.000  0.000  0.954 -0.000
       0.000  0.000  0.000 -0.000  0.988
     SPIN  2
     eigenvalues:
       0.328  0.883  0.963  0.963  0.978
     eigenvectors (columns):
       0.000  1.000 -0.000 -0.000  0.000
      -0.000  0.000  0.364  0.931  0.000
      -0.000  0.000  0.931 -0.364  0.000
       1.000 -0.000  0.000  0.000 -0.000
       0.000 -0.000 -0.000 -0.000  1.000
     occupation matrix ns (before diag.):
       0.883 -0.000 -0.000 -0.000  0.000
      -0.000  0.963 -0.000  0.000  0.000
      -0.000 -0.000  0.963  0.000  0.000
      -0.000  0.000  0.000  0.328 -0.000
       0.000  0.000  0.000 -0.000  0.978
     ------------------------ ATOM   15 ------------------------
     Tr[ns( 15)] (up, down, total) =   4.11524  4.86305  8.97828
     Atomic magnetic moment for atom  15 =  -0.74781
     SPIN  1
     eigenvalues:
       0.328  0.883  0.963  0.963  0.978
     eigenvectors (columns):
      -0.000  1.000 -0.000 -0.000  0.000
      -0.000  0.000  0.317  0.948  0.000
      -0.000  0.000  0.948 -0.317  0.000
       1.000  0.000  0.000  0.000 -0.000
       0.000 -0.000 -0.000 -0.000  1.000
     occupation matrix ns (before diag.):
       0.883 -0.000 -0.000 -0.000  0.000
      -0.000  0.963 -0.000  0.000  0.000
      -0.000 -0.000  0.963  0.000  0.000
      -0.000  0.000  0.000  0.328 -0.000
       0.000  0.000  0.000 -0.000  0.978
     SPIN  2
     eigenvalues:
       0.954  0.957  0.982  0.982  0.988
     eigenvectors (columns):
      -0.000  1.000  0.000  0.000  0.000
      -0.000  0.000 -0.327 -0.945  0.000
      -0.000  0.000 -0.945  0.327  0.000
       1.000  0.000 -0.000 -0.000 -0.000
       0.000 -0.000  0.000  0.000  1.000
     occupation matrix ns (before diag.):
       0.957 -0.000 -0.000  0.000  0.000
      -0.000  0.982 -0.000  0.000  0.000
      -0.000 -0.000  0.982  0.000  0.000
       0.000  0.000  0.000  0.954 -0.000
       0.000  0.000  0.000 -0.000  0.988
     ------------------------ ATOM   17 ------------------------
     Tr[ns( 17)] (up, down, total) =   4.11509  4.86306  8.97815
     Atomic magnetic moment for atom  17 =  -0.74797
     SPIN  1
     eigenvalues:
       0.328  0.883  0.963  0.963  0.978
     eigenvectors (columns):
       0.000  1.000 -0.000 -0.000  0.000
      -0.000  0.000  1.000 -0.000  0.000
      -0.000  0.000  0.000  1.000  0.000
       1.000 -0.000  0.000  0.000 -0.000
       0.000 -0.000 -0.000 -0.000  1.000
     occupation matrix ns (before diag.):
       0.883 -0.000 -0.000 -0.000  0.000
      -0.000  0.963 -0.000  0.000  0.000
      -0.000 -0.000  0.963  0.000  0.000
      -0.000  0.000  0.000  0.328 -0.000
       0.000  0.000  0.000 -0.000  0.978
     SPIN  2
     eigenvalues:
       0.954  0.957  0.982  0.982  0.988
     eigenvectors (columns):
       0.002  1.000  0.000  0.000  0.000
      -0.000  0.000 -1.000  0.000  0.000
      -0.000  0.000 -0.000 -1.000  0.000
       1.000 -0.002 -0.000 -0.000 -0.000
       0.000 -0.000  0.000  0.000  1.000
     occupation matrix ns (before diag.):
       0.957 -0.000 -0.000 -0.000  0.000
      -0.000  0.982 -0.000  0.000  0.000
      -0.000 -0.000  0.982  0.000  0.000
      -0.000  0.000  0.000  0.954 -0.000
       0.000  0.000  0.000 -0.000  0.988
     ------------------------ ATOM   18 ------------------------
     Tr[ns( 18)] (up, down, total) =   4.86303  4.11511  8.97814
     Atomic magnetic moment for atom  18 =   0.74792
     SPIN  1
     eigenvalues:
       0.954  0.957  0.982  0.982  0.988
     eigenvectors (columns):
       0.001  1.000  0.000  0.000  0.000
      -0.000  0.000 -1.000  0.000  0.000
      -0.000  0.000 -0.000 -1.000  0.000
       1.000 -0.001 -0.000 -0.000 -0.000
       0.000 -0.000  0.000  0.000  1.000
     occupation matrix ns (before diag.):
       0.957 -0.000 -0.000 -0.000  0.000
      -0.000  0.982 -0.000  0.000  0.000
      -0.000 -0.000  0.982  0.000  0.000
      -0.000  0.000  0.000  0.954 -0.000
       0.000  0.000  0.000 -0.000  0.988
     SPIN  2
     eigenvalues:
       0.328  0.883  0.963  0.963  0.978
     eigenvectors (columns):
       0.000  1.000 -0.000 -0.000  0.000
      -0.000  0.000  1.000 -0.000  0.000
      -0.000  0.000  0.000  1.000  0.000
       1.000 -0.000  0.000  0.000 -0.000
       0.000 -0.000 -0.000 -0.000  1.000
     occupation matrix ns (before diag.):
       0.883 -0.000 -0.000 -0.000  0.000
      -0.000  0.963 -0.000  0.000  0.000
      -0.000 -0.000  0.963  0.000  0.000
      -0.000  0.000  0.000  0.328 -0.000
       0.000  0.000  0.000 -0.000  0.978
     ------------------------ ATOM   20 ------------------------
     Tr[ns( 20)] (up, down, total) =   4.11509  4.86306  8.97815
     Atomic magnetic moment for atom  20 =  -0.74797
     SPIN  1
     eigenvalues:
       0.328  0.883  0.963  0.963  0.978
     eigenvectors (columns):
      -0.000  1.000 -0.000 -0.000  0.000
      -0.000  0.000  0.000  1.000  0.000
      -0.000  0.000  1.000 -0.000  0.000
       1.000  0.000  0.000  0.000 -0.000
       0.000 -0.000 -0.000 -0.000  1.000
     occupation matrix ns (before diag.):
       0.883 -0.000 -0.000  0.000  0.000
      -0.000  0.963 -0.000  0.000  0.000
      -0.000 -0.000  0.963  0.000  0.000
       0.000  0.000  0.000  0.328 -0.000
       0.000  0.000  0.000 -0.000  0.978
     SPIN  2
     eigenvalues:
       0.954  0.957  0.982  0.982  0.988
     eigenvectors (columns):
      -0.002  1.000  0.000  0.000  0.000
      -0.000  0.000 -0.000 -1.000  0.000
      -0.000  0.000 -1.000  0.000  0.000
       1.000  0.002 -0.000 -0.000 -0.000
       0.000 -0.000  0.000  0.000  1.000
     occupation matrix ns (before diag.):
       0.957 -0.000 -0.000  0.000  0.000
      -0.000  0.982 -0.000  0.000  0.000
      -0.000 -0.000  0.982  0.000  0.000
       0.000  0.000  0.000  0.954 -0.000
       0.000  0.000  0.000 -0.000  0.988
     ------------------------ ATOM   21 ------------------------
     Tr[ns( 21)] (up, down, total) =   4.86303  4.11511  8.97814
     Atomic magnetic moment for atom  21 =   0.74792
     SPIN  1
     eigenvalues:
       0.954  0.957  0.982  0.982  0.988
     eigenvectors (columns):
      -0.001  1.000  0.000  0.000  0.000
      -0.000  0.000 -0.000 -1.000  0.000
      -0.000  0.000 -1.000  0.000  0.000
       1.000  0.001 -0.000 -0.000 -0.000
       0.000 -0.000  0.000  0.000  1.000
     occupation matrix ns (before diag.):
       0.957 -0.000 -0.000  0.000  0.000
      -0.000  0.982 -0.000  0.000  0.000
      -0.000 -0.000  0.982  0.000  0.000
       0.000  0.000  0.000  0.954 -0.000
       0.000  0.000  0.000 -0.000  0.988
     SPIN  2
     eigenvalues:
       0.328  0.883  0.963  0.963  0.978
     eigenvectors (columns):
      -0.000  1.000 -0.000 -0.000  0.000
      -0.000  0.000  0.000  1.000  0.000
      -0.000  0.000  1.000 -0.000  0.000
       1.000  0.000  0.000  0.000 -0.000
       0.000 -0.000 -0.000 -0.000  1.000
     occupation matrix ns (before diag.):
       0.883 -0.000 -0.000  0.000  0.000
      -0.000  0.963 -0.000  0.000  0.000
      -0.000 -0.000  0.963  0.000  0.000
       0.000  0.000  0.000  0.328 -0.000
       0.000  0.000  0.000 -0.000  0.978
     ------------------------ ATOM   23 ------------------------
     Tr[ns( 23)] (up, down, total) =   4.86314  4.11517  8.97831
     Atomic magnetic moment for atom  23 =   0.74797
     SPIN  1
     eigenvalues:
       0.954  0.957  0.982  0.982  0.988
     eigenvectors (columns):
      -0.000  1.000  0.000  0.000  0.000
      -0.000  0.000 -0.326 -0.946  0.000
      -0.000  0.000 -0.946  0.326  0.000
       1.000  0.000 -0.000 -0.000 -0.000
       0.000 -0.000  0.000  0.000  1.000
     occupation matrix ns (before diag.):
       0.957 -0.000 -0.000  0.000  0.000
      -0.000  0.982 -0.000  0.000  0.000
      -0.000 -0.000  0.982  0.000  0.000
       0.000  0.000  0.000  0.954 -0.000
       0.000  0.000  0.000 -0.000  0.988
     SPIN  2
     eigenvalues:
       0.328  0.883  0.963  0.963  0.978
     eigenvectors (columns):
      -0.000  1.000 -0.000 -0.000  0.000
      -0.000  0.000  0.336  0.942  0.000
      -0.000  0.000  0.942 -0.336  0.000
       1.000 -0.000  0.000  0.000 -0.000
       0.000 -0.000 -0.000 -0.000  1.000
     occupation matrix ns (before diag.):
       0.883 -0.000 -0.000 -0.000  0.000
      -0.000  0.963 -0.000  0.000  0.000
      -0.000 -0.000  0.963  0.000  0.000
      -0.000  0.000  0.000  0.328 -0.000
       0.000  0.000  0.000 -0.000  0.978
     ------------------------ ATOM   24 ------------------------
     Tr[ns( 24)] (up, down, total) =   4.11517  4.86305  8.97822
     Atomic magnetic moment for atom  24 =  -0.74788
     SPIN  1
     eigenvalues:
       0.328  0.883  0.963  0.963  0.978
     eigenvectors (columns):
      -0.000  1.000 -0.000 -0.000  0.000
      -0.000  0.000  0.339  0.941  0.000
      -0.000  0.000  0.941 -0.339  0.000
       1.000  0.000  0.000  0.000 -0.000
       0.000 -0.000 -0.000 -0.000  1.000
     occupation matrix ns (before diag.):
       0.883 -0.000 -0.000 -0.000  0.000
      -0.000  0.963 -0.000  0.000  0.000
      -0.000 -0.000  0.963  0.000  0.000
      -0.000  0.000  0.000  0.328 -0.000
       0.000  0.000  0.000 -0.000  0.978
     SPIN  2
     eigenvalues:
       0.954  0.957  0.982  0.982  0.988
     eigenvectors (columns):
      -0.000  1.000  0.000  0.000  0.000
      -0.000  0.000 -0.356 -0.935  0.000
      -0.000  0.000 -0.935  0.356  0.000
       1.000  0.000 -0.000 -0.000 -0.000
       0.000 -0.000  0.000  0.000  1.000
     occupation matrix ns (before diag.):
       0.957 -0.000 -0.000  0.000  0.000
      -0.000  0.982 -0.000  0.000  0.000
      -0.000 -0.000  0.982  0.000  0.000
       0.000  0.000  0.000  0.954 -0.000
       0.000  0.000  0.000 -0.000  0.988

     Number of occupied Hubbard levels =   71.8257

     negative rho (up, down):  3.965E-01 3.965E-01

     HUBBARD ENERGY =    0.4032  (Ry)

     total cpu time spent up to now is      306.2 secs

     total energy              =   -6555.21469348 Ry
     estimated scf accuracy    <       7.51741615 Ry

     total magnetization       =    -0.00 Bohr mag/cell
     absolute magnetization    =     7.55 Bohr mag/cell

     iteration #  2     ecut=    60.00 Ry     beta= 0.10
     Davidson diagonalization with overlap

---- Real-time Memory Report at c_bands before calling an iterative solver
          2923 MiB given to the printing process from OS
             0 MiB allocation reported by mallinfo(arena+hblkhd)
          8258 MiB available memory on the node where the printing process lives
------------------
     ethr =  1.52E-03,  avg # of iterations =  1.8

     =================== HUBBARD OCCUPATIONS ===================
     ------------------------ ATOM   14 ------------------------
     Tr[ns( 14)] (up, down, total) =   4.87163  4.18332  9.05495
     Atomic magnetic moment for atom  14 =   0.68832
     SPIN  1
     eigenvalues:
       0.960  0.961  0.982  0.982  0.987
     eigenvectors (columns):
      -0.000  1.000  0.000  0.000  0.000
      -0.000  0.000 -0.306 -0.952  0.000
      -0.000  0.000 -0.952  0.306  0.000
       1.000  0.000 -0.000 -0.000 -0.000
       0.000 -0.000  0.000  0.000  1.000
     occupation matrix ns (before diag.):
       0.961 -0.000 -0.000  0.000  0.000
      -0.000  0.982 -0.000  0.000  0.000
      -0.000 -0.000  0.982  0.000  0.000
       0.000  0.000  0.000  0.960 -0.000
       0.000  0.000  0.000 -0.000  0.987
     SPIN  2
     eigenvalues:
       0.340  0.926  0.970  0.970  0.978
     eigenvectors (columns):
       0.000 -1.000 -0.000 -0.000  0.000
       0.000 -0.000  0.308  0.952  0.000
       0.000 -0.000  0.952 -0.308  0.000
      -1.000 -0.000  0.000  0.000 -0.000
      -0.000  0.000 -0.000 -0.000  1.000
     occupation matrix ns (before diag.):
       0.926 -0.000 -0.000 -0.000  0.000
      -0.000  0.970 -0.000  0.000  0.000
      -0.000 -0.000  0.970  0.000  0.000
      -0.000  0.000  0.000  0.340 -0.000
       0.000  0.000  0.000 -0.000  0.978
     ------------------------ ATOM   15 ------------------------
     Tr[ns( 15)] (up, down, total) =   4.18333  4.87162  9.05495
     Atomic magnetic moment for atom  15 =  -0.68829
     SPIN  1
     eigenvalues:
       0.340  0.926  0.970  0.970  0.978
     eigenvectors (columns):
      -0.000 -1.000 -0.000 -0.000  0.000
       0.000 -0.000  0.307  0.952  0.000
       0.000 -0.000  0.952 -0.307  0.000
      -1.000  0.000  0.000  0.000 -0.000
      -0.000  0.000 -0.000 -0.000  1.000
     occupation matrix ns (before diag.):
       0.926 -0.000 -0.000 -0.000  0.000
      -0.000  0.970 -0.000  0.000  0.000
      -0.000 -0.000  0.970  0.000  0.000
      -0.000  0.000  0.000  0.340 -0.000
       0.000  0.000  0.000 -0.000  0.978
     SPIN  2
     eigenvalues:
       0.960  0.961  0.982  0.982  0.987
     eigenvectors (columns):
      -0.000  1.000  0.000  0.000  0.000
      -0.000  0.000 -0.314 -0.949  0.000
      -0.000  0.000 -0.949  0.314  0.000
       1.000  0.000 -0.000 -0.000 -0.000
       0.000 -0.000  0.000  0.000  1.000
     occupation matrix ns (before diag.):
       0.961 -0.000 -0.000  0.000  0.000
      -0.000  0.982 -0.000  0.000  0.000
      -0.000 -0.000  0.982  0.000  0.000
       0.000  0.000  0.000  0.960 -0.000
       0.000  0.000  0.000 -0.000  0.987
     ------------------------ ATOM   17 ------------------------
     Tr[ns( 17)] (up, down, total) =   4.18339  4.87167  9.05506
     Atomic magnetic moment for atom  17 =  -0.68827
     SPIN  1
     eigenvalues:
       0.340  0.926  0.970  0.970  0.978
     eigenvectors (columns):
      -0.000 -1.000 -0.000 -0.000  0.000
       0.000 -0.000  1.000 -0.000  0.000
       0.000 -0.000  0.000  1.000  0.000
      -1.000  0.000  0.000  0.000 -0.000
      -0.000  0.000 -0.000 -0.000  1.000
     occupation matrix ns (before diag.):
       0.926 -0.000 -0.000 -0.000  0.000
      -0.000  0.970 -0.000  0.000  0.000
      -0.000 -0.000  0.970  0.000  0.000
      -0.000  0.000  0.000  0.340 -0.000
       0.000  0.000  0.000 -0.000  0.978
     SPIN  2
     eigenvalues:
       0.960  0.961  0.982  0.982  0.987
     eigenvectors (columns):
       0.003  1.000  0.000  0.000  0.000
      -0.000  0.000 -0.000 -1.000  0.000
      -0.000  0.000 -1.000  0.000  0.000
       1.000 -0.003 -0.000 -0.000 -0.000
       0.000 -0.000  0.000  0.000  1.000
     occupation matrix ns (before diag.):
       0.961 -0.000 -0.000 -0.000  0.000
      -0.000  0.982 -0.000  0.000  0.000
      -0.000 -0.000  0.982  0.000  0.000
      -0.000  0.000  0.000  0.960 -0.000
       0.000  0.000  0.000 -0.000  0.987
     ------------------------ ATOM   18 ------------------------
     Tr[ns( 18)] (up, down, total) =   4.87166  4.18336  9.05502
     Atomic magnetic moment for atom  18 =   0.68830
     SPIN  1
     eigenvalues:
       0.960  0.961  0.982  0.982  0.987
     eigenvectors (columns):
       0.000  1.000  0.000  0.000  0.000
      -0.000  0.000 -1.000  0.000  0.000
      -0.000  0.000 -0.000 -1.000  0.000
       1.000 -0.000 -0.000 -0.000 -0.000
       0.000 -0.000  0.000  0.000  1.000
     occupation matrix ns (before diag.):
       0.961 -0.000 -0.000 -0.000  0.000
      -0.000  0.982 -0.000  0.000  0.000
      -0.000 -0.000  0.982  0.000  0.000
      -0.000  0.000  0.000  0.960 -0.000
       0.000  0.000  0.000 -0.000  0.987
     SPIN  2
     eigenvalues:
       0.340  0.926  0.970  0.970  0.978
     eigenvectors (columns):
      -0.000 -1.000 -0.000 -0.000  0.000
       0.000 -0.000  1.000 -0.000  0.000
       0.000 -0.000  0.000  1.000  0.000
      -1.000  0.000  0.000  0.000 -0.000
      -0.000  0.000 -0.000 -0.000  1.000
     occupation matrix ns (before diag.):
       0.926 -0.000 -0.000 -0.000  0.000
      -0.000  0.970 -0.000  0.000  0.000
      -0.000 -0.000  0.970  0.000  0.000
      -0.000  0.000  0.000  0.340 -0.000
       0.000  0.000  0.000 -0.000  0.978
     ------------------------ ATOM   20 ------------------------
     Tr[ns( 20)] (up, down, total) =   4.18339  4.87167  9.05506
     Atomic magnetic moment for atom  20 =  -0.68827
     SPIN  1
     eigenvalues:
       0.340  0.926  0.970  0.970  0.978
     eigenvectors (columns):
       0.000 -1.000 -0.000 -0.000  0.000
       0.000 -0.000  0.000  1.000  0.000
       0.000 -0.000  1.000 -0.000  0.000
      -1.000 -0.000  0.000  0.000 -0.000
      -0.000  0.000 -0.000 -0.000  1.000
     occupation matrix ns (before diag.):
       0.926 -0.000 -0.000  0.000  0.000
      -0.000  0.970 -0.000  0.000  0.000
      -0.000 -0.000  0.970  0.000  0.000
       0.000  0.000  0.000  0.340 -0.000
       0.000  0.000  0.000 -0.000  0.978
     SPIN  2
     eigenvalues:
       0.960  0.961  0.982  0.982  0.987
     eigenvectors (columns):
      -0.003  1.000  0.000  0.000  0.000
      -0.000  0.000 -1.000  0.000  0.000
      -0.000  0.000 -0.000 -1.000  0.000
       1.000  0.003 -0.000 -0.000 -0.000
       0.000 -0.000  0.000  0.000  1.000
     occupation matrix ns (before diag.):
       0.961 -0.000 -0.000  0.000  0.000
      -0.000  0.982 -0.000  0.000  0.000
      -0.000 -0.000  0.982  0.000  0.000
       0.000  0.000  0.000  0.960 -0.000
       0.000  0.000  0.000 -0.000  0.987
     ------------------------ ATOM   21 ------------------------
     Tr[ns( 21)] (up, down, total) =   4.87166  4.18336  9.05502
     Atomic magnetic moment for atom  21 =   0.68830
     SPIN  1
     eigenvalues:
       0.960  0.961  0.982  0.982  0.987
     eigenvectors (columns):
      -0.000  1.000  0.000  0.000  0.000
      -0.000  0.000 -0.000 -1.000  0.000
      -0.000  0.000 -1.000  0.000  0.000
       1.000  0.000 -0.000 -0.000 -0.000
       0.000 -0.000  0.000  0.000  1.000
     occupation matrix ns (before diag.):
       0.961 -0.000 -0.000  0.000  0.000
      -0.000  0.982 -0.000  0.000  0.000
      -0.000 -0.000  0.982  0.000  0.000
       0.000  0.000  0.000  0.960 -0.000
       0.000  0.000  0.000 -0.000  0.987
     SPIN  2
     eigenvalues:
       0.340  0.926  0.970  0.970  0.978
     eigenvectors (columns):
       0.000 -1.000 -0.000 -0.000  0.000
       0.000 -0.000  0.000  1.000  0.000
       0.000 -0.000  1.000 -0.000  0.000
      -1.000 -0.000  0.000  0.000 -0.000
      -0.000  0.000 -0.000 -0.000  1.000
     occupation matrix ns (before diag.):
       0.926 -0.000 -0.000  0.000  0.000
      -0.000  0.970 -0.000  0.000  0.000
      -0.000 -0.000  0.970  0.000  0.000
       0.000  0.000  0.000  0.340 -0.000
       0.000  0.000  0.000 -0.000  0.978
     ------------------------ ATOM   23 ------------------------
     Tr[ns( 23)] (up, down, total) =   4.87165  4.18328  9.05494
     Atomic magnetic moment for atom  23 =   0.68837
     SPIN  1
     eigenvalues:
       0.960  0.961  0.982  0.982  0.987
     eigenvectors (columns):
      -0.000  1.000  0.000  0.000  0.000
      -0.000  0.000 -0.323 -0.946  0.000
      -0.000  0.000 -0.946  0.323  0.000
       1.000  0.000 -0.000 -0.000 -0.000
       0.000 -0.000  0.000  0.000  1.000
     occupation matrix ns (before diag.):
       0.961 -0.000 -0.000  0.000  0.000
      -0.000  0.982 -0.000  0.000  0.000
      -0.000 -0.000  0.982  0.000  0.000
       0.000  0.000  0.000  0.960 -0.000
       0.000  0.000  0.000 -0.000  0.987
     SPIN  2
     eigenvalues:
       0.340  0.926  0.970  0.970  0.978
     eigenvectors (columns):
      -0.000 -1.000 -0.000 -0.000  0.000
       0.000 -0.000  0.352  0.936  0.000
       0.000 -0.000  0.936 -0.352  0.000
      -1.000 -0.000  0.000  0.000 -0.000
      -0.000  0.000 -0.000 -0.000  1.000
     occupation matrix ns (before diag.):
       0.926 -0.000 -0.000 -0.000  0.000
      -0.000  0.970 -0.000  0.000  0.000
      -0.000 -0.000  0.970  0.000  0.000
      -0.000  0.000  0.000  0.340 -0.000
       0.000  0.000  0.000 -0.000  0.978
     ------------------------ ATOM   24 ------------------------
     Tr[ns( 24)] (up, down, total) =   4.18331  4.87161  9.05492
     Atomic magnetic moment for atom  24 =  -0.68831
     SPIN  1
     eigenvalues:
       0.340  0.926  0.970  0.970  0.978
     eigenvectors (columns):
       0.000 -1.000 -0.000 -0.000  0.000
       0.000 -0.000  0.298  0.954  0.000
       0.000 -0.000  0.954 -0.298  0.000
      -1.000 -0.000  0.000  0.000 -0.000
      -0.000  0.000 -0.000 -0.000  1.000
     occupation matrix ns (before diag.):
       0.926 -0.000 -0.000 -0.000  0.000
      -0.000  0.970 -0.000  0.000  0.000
      -0.000 -0.000  0.970  0.000  0.000
      -0.000  0.000  0.000  0.340 -0.000
       0.000  0.000  0.000 -0.000  0.978
     SPIN  2
     eigenvalues:
       0.960  0.961  0.982  0.982  0.987
     eigenvectors (columns):
      -0.000  1.000  0.000  0.000  0.000
      -0.000  0.000 -0.335 -0.942  0.000
      -0.000  0.000 -0.942  0.335  0.000
       1.000  0.000 -0.000 -0.000 -0.000
       0.000 -0.000  0.000  0.000  1.000
     occupation matrix ns (before diag.):
       0.961 -0.000 -0.000  0.000  0.000
      -0.000  0.982 -0.000  0.000  0.000
      -0.000 -0.000  0.982  0.000  0.000
       0.000  0.000  0.000  0.960 -0.000
       0.000  0.000  0.000 -0.000  0.987

     Number of occupied Hubbard levels =   72.4399

     negative rho (up, down):  3.841E-01 3.841E-01

     HUBBARD ENERGY =    0.3931  (Ry)

     total cpu time spent up to now is      476.8 secs

     total energy              =   -6553.94387949 Ry
     estimated scf accuracy    <       4.44661675 Ry

     total magnetization       =     0.00 Bohr mag/cell
     absolute magnetization    =     7.10 Bohr mag/cell

     iteration #  3     ecut=    60.00 Ry     beta= 0.10
     Davidson diagonalization with overlap

---- Real-time Memory Report at c_bands before calling an iterative solver
          2930 MiB given to the printing process from OS
             0 MiB allocation reported by mallinfo(arena+hblkhd)
          8208 MiB available memory on the node where the printing process lives
------------------
