
     Program PWSCF v.7.2 starts on  2Jan2024 at 11: 2:44 

     This program is part of the open-source Quantum ESPRESSO suite
     for quantum simulation of materials; please cite
         "P. Giannozzi et al., J. Phys.:Condens. Matter 21 395502 (2009);
         "P. Giannozzi et al., J. Phys.:Condens. Matter 29 465901 (2017);
         "P. Giannozzi et al., J. Chem. Phys. 152 154105 (2020);
          URL http://www.quantum-espresso.org", 
     in publications or presentations arising from this work. More details at
     http://www.quantum-espresso.org/quote

     Parallel version (MPI), running on     4 processors

     MPI processes distributed on     1 nodes
     9877 MiB available memory on the printing compute node when the environment starts
 
     Waiting for input...
     Reading input from standard input
Warning: card &CELL ignored
Warning: card / ignored

     Current dimensions of program PWSCF are:
     Max number of different atomic species (ntypx) = 10
     Max number of k-points (npk) =  40000
     Max angular momentum in pseudopotentials (lmaxx) =  4
     Found identity + ( -0.5000 -0.5000  0.0000) symmetry
     This is a supercell, fractional translations are disabled
 
     R & G space division:  proc/nbgrp/npool/nimage =       4
     Subspace diagonalization in iterative solution of the eigenvalue problem:
     one sub-group per band group will be used
     custom distributed-memory algorithm (size of sub-group:  2*  2 procs)

 
     Parallelization info
     --------------------
     sticks:   dense  smooth     PW     G-vecs:    dense   smooth      PW
     Min        2210     984    271               238514    70654   10061
     Max        2211     985    272               238519    70656   10062
     Sum        8841    3937   1085               954065   282619   40245
 
     Using Slab Decomposition
 


     bravais-lattice index     =            6
     lattice parameter (alat)  =      14.3459  a.u.
     unit-cell volume          =    4502.1906 (a.u.)^3
     number of atoms/cell      =           48
     number of atomic types    =            6
     number of electrons       =       496.00
     number of Kohn-Sham states=          298
     kinetic-energy cutoff     =      60.0000  Ry
     charge density cutoff     =     540.0000  Ry
     scf convergence threshold =      1.0E-08
     mixing beta               =       0.1000
     number of iterations used =            8  plain     mixing
     Exchange-correlation= SLA  PZ   NOGX NOGC
                           (   1   1   0   0   0   0   0)
     Hubbard projectors: ortho-atomic
     Hubbard parameters of DFT+U (Dudarev formulation) in eV:
     U(Cu1-3d) =  2.5000
     U(Cu2-3d) =  2.5000

     Internal variables: lda_plus_u = T, lda_plus_u_kind = 0

     celldm(1)=  14.345919  celldm(2)=   0.000000  celldm(3)=   1.524891
     celldm(4)=   0.000000  celldm(5)=   0.000000  celldm(6)=   0.000000

     crystal axes: (cart. coord. in units of alat)
               a(1) = (   1.000000   0.000000   0.000000 )  
               a(2) = (   0.000000   1.000000   0.000000 )  
               a(3) = (   0.000000   0.000000   1.524891 )  

     reciprocal axes: (cart. coord. in units 2 pi/alat)
               b(1) = (  1.000000  0.000000  0.000000 )  
               b(2) = (  0.000000  1.000000  0.000000 )  
               b(3) = (  0.000000  0.000000  0.655785 )  


     PseudoPot. # 1 for Y  read from file:
     ~/q-e/pseudo/gbrv_lda/y_lda_v1.4.uspp.F.UPF
     MD5 check sum: Not computed, couldn't open file
     Pseudo is Ultrasoft + core correction, Zval = 11.0
     Generated by new atomic code, or converted to UPF format
     Using radial grid of  885 points,  6 beta functions with: 
                l(1) =   0
                l(2) =   0
                l(3) =   1
                l(4) =   1
                l(5) =   2
                l(6) =   2
     Q(r) pseudized with  8 coefficients,  rinner =    1.200   1.200   1.200
                                                       1.200   1.200

     PseudoPot. # 2 for Ba read from file:
     ~/q-e/pseudo/gbrv_lda/ba_lda_v1.uspp.F.UPF
     MD5 check sum: Not computed, couldn't open file
     Pseudo is Ultrasoft + core correction, Zval = 10.0
     Generated by new atomic code, or converted to UPF format
     Using radial grid of  907 points,  7 beta functions with: 
                l(1) =   0
                l(2) =   0
                l(3) =   1
                l(4) =   1
                l(5) =   2
                l(6) =   2
                l(7) =   3
     Q(r) pseudized with  6 coefficients,  rinner =    1.700   1.700   1.700
                                                       1.700   1.700   1.700
                                                       1.700

     PseudoPot. # 3 for Cu read from file:
     ~/q-e/pseudo/gbrv_lda/cu_lda_v1.2.uspp.F.UPF
     MD5 check sum: Not computed, couldn't open file
     Pseudo is Ultrasoft + core correction, Zval = 19.0
     Generated by new atomic code, or converted to UPF format
     Using radial grid of  867 points,  6 beta functions with: 
                l(1) =   0
                l(2) =   0
                l(3) =   1
                l(4) =   1
                l(5) =   2
                l(6) =   2
     Q(r) pseudized with  8 coefficients,  rinner =    1.150   1.150   1.150
                                                       1.150   1.150

     PseudoPot. # 4 for Cu read from file:
     ~/q-e/pseudo/gbrv_lda/cu_lda_v1.2.uspp.F.UPF
     MD5 check sum: Not computed, couldn't open file
     Pseudo is Ultrasoft + core correction, Zval = 19.0
     Generated by new atomic code, or converted to UPF format
     Using radial grid of  867 points,  6 beta functions with: 
                l(1) =   0
                l(2) =   0
                l(3) =   1
                l(4) =   1
                l(5) =   2
                l(6) =   2
     Q(r) pseudized with  8 coefficients,  rinner =    1.150   1.150   1.150
                                                       1.150   1.150

     PseudoPot. # 5 for Cu read from file:
     ~/q-e/pseudo/gbrv_lda/cu_lda_v1.2.uspp.F.UPF
     MD5 check sum: Not computed, couldn't open file
     Pseudo is Ultrasoft + core correction, Zval = 19.0
     Generated by new atomic code, or converted to UPF format
     Using radial grid of  867 points,  6 beta functions with: 
                l(1) =   0
                l(2) =   0
                l(3) =   1
                l(4) =   1
                l(5) =   2
                l(6) =   2
     Q(r) pseudized with  8 coefficients,  rinner =    1.150   1.150   1.150
                                                       1.150   1.150

     PseudoPot. # 6 for O  read from file:
     ~/q-e/pseudo/gbrv_lda/o_lda_v1.2.uspp.F.UPF
     MD5 check sum: Not computed, couldn't open file
     Pseudo is Ultrasoft + core correction, Zval =  6.0
     Generated by new atomic code, or converted to UPF format
     Using radial grid of  737 points,  5 beta functions with: 
                l(1) =   0
                l(2) =   0
                l(3) =   1
                l(4) =   1
                l(5) =   2
     Q(r) pseudized with  8 coefficients,  rinner =    0.900   0.900   0.900
                                                       0.900   0.900

     atomic species   valence    mass     pseudopotential
     Y                11.00    88.90584     Y ( 1.00)
     Ba               10.00   137.32700     Ba( 1.00)
     Cu               19.00    63.54600     Cu( 1.00)
     Cu1              19.00    63.54600     Cu( 1.00)
     Cu2              19.00    63.54600     Cu( 1.00)
     O                 6.00    15.99900     O ( 1.00)

     Starting magnetic structure 
     atomic species   magnetization
     Y               0.000
     Ba              0.000
     Cu              0.000
     Cu1             0.100
     Cu2            -0.100
     O               0.000

      8 Sym. Ops. (no inversion) found


                                    s                        frac. trans.

      isym =  1     identity                                     

 cryst.   s( 1) = (     1          0          0      )
                  (     0          1          0      )
                  (     0          0          1      )

 cart.    s( 1) = (  1.0000000  0.0000000  0.0000000 )
                  (  0.0000000  1.0000000  0.0000000 )
                  (  0.0000000  0.0000000  1.0000000 )


      isym =  2     180 deg rotation - cart. axis [0,0,1]        

 cryst.   s( 2) = (    -1          0          0      )
                  (     0         -1          0      )
                  (     0          0          1      )

 cart.    s( 2) = ( -1.0000000  0.0000000  0.0000000 )
                  (  0.0000000 -1.0000000  0.0000000 )
                  (  0.0000000  0.0000000  1.0000000 )


      isym =  3      90 deg rotation - cart. axis [0,0,-1]       

 cryst.   s( 3) = (     0         -1          0      )
                  (     1          0          0      )
                  (     0          0          1      )

 cart.    s( 3) = (  0.0000000  1.0000000  0.0000000 )
                  ( -1.0000000  0.0000000  0.0000000 )
                  (  0.0000000  0.0000000  1.0000000 )


      isym =  4      90 deg rotation - cart. axis [0,0,1]        

 cryst.   s( 4) = (     0          1          0      )
                  (    -1          0          0      )
                  (     0          0          1      )

 cart.    s( 4) = (  0.0000000 -1.0000000  0.0000000 )
                  (  1.0000000  0.0000000  0.0000000 )
                  (  0.0000000  0.0000000  1.0000000 )


      isym =  5     inv. 180 deg rotation - cart. axis [0,1,0]   

 cryst.   s( 5) = (     1          0          0      )
                  (     0         -1          0      )
                  (     0          0          1      )

 cart.    s( 5) = (  1.0000000  0.0000000  0.0000000 )
                  (  0.0000000 -1.0000000  0.0000000 )
                  (  0.0000000  0.0000000  1.0000000 )


      isym =  6     inv. 180 deg rotation - cart. axis [1,0,0]   

 cryst.   s( 6) = (    -1          0          0      )
                  (     0          1          0      )
                  (     0          0          1      )

 cart.    s( 6) = ( -1.0000000  0.0000000  0.0000000 )
                  (  0.0000000  1.0000000  0.0000000 )
                  (  0.0000000  0.0000000  1.0000000 )


      isym =  7     inv. 180 deg rotation - cart. axis [1,1,0]   

 cryst.   s( 7) = (     0         -1          0      )
                  (    -1          0          0      )
                  (     0          0          1      )

 cart.    s( 7) = (  0.0000000 -1.0000000  0.0000000 )
                  ( -1.0000000  0.0000000  0.0000000 )
                  (  0.0000000  0.0000000  1.0000000 )


      isym =  8     inv. 180 deg rotation - cart. axis [1,-1,0]  

 cryst.   s( 8) = (     0          1          0      )
                  (     1          0          0      )
                  (     0          0          1      )

 cart.    s( 8) = (  0.0000000  1.0000000  0.0000000 )
                  (  1.0000000  0.0000000  0.0000000 )
                  (  0.0000000  0.0000000  1.0000000 )


     point group C_4v (4mm) 
     there are  5 classes
     the character table:

       E     2C4   C2    2s_v  2s_d 
A_1    1.00  1.00  1.00  1.00  1.00
A_2    1.00  1.00  1.00 -1.00 -1.00
B_1    1.00 -1.00  1.00  1.00 -1.00
B_2    1.00 -1.00  1.00 -1.00  1.00
E      2.00  0.00 -2.00  0.00  0.00

     the symmetry operations in each class and the name of the first element:

     E        1
          identity                                               
     2C4      3    4
           90 deg rotation - cart. axis [0,0,-1]                 
     C2       2
          180 deg rotation - cart. axis [0,0,1]                  
     2s_v     5    6
          inv. 180 deg rotation - cart. axis [0,1,0]             
     2s_d     7    8
          inv. 180 deg rotation - cart. axis [1,1,0]             

   Cartesian axes

     site n.     atom                  positions (alat units)
         1        Y      tau(   1) = (   0.2500000   0.2500000   0.7624455  )
         2        Y      tau(   2) = (   0.2500000   0.7500000   0.7624455  )
         3        Y      tau(   3) = (   0.7500000   0.2500000   0.7624455  )
         4        Y      tau(   4) = (   0.7500000   0.7500000   0.7624455  )
         5        Ba     tau(   5) = (   0.2500000   0.2500000   0.2966571  )
         6        Ba     tau(   6) = (   0.2500000   0.2500000   1.2282339  )
         7        Ba     tau(   7) = (   0.2500000   0.7500000   0.2966571  )
         8        Ba     tau(   8) = (   0.2500000   0.7500000   1.2282339  )
         9        Ba     tau(   9) = (   0.7500000   0.2500000   0.2966571  )
        10        Ba     tau(  10) = (   0.7500000   0.2500000   1.2282339  )
        11        Ba     tau(  11) = (   0.7500000   0.7500000   0.2966571  )
        12        Ba     tau(  12) = (   0.7500000   0.7500000   1.2282339  )
        13        Cu     tau(  13) = (   0.0000000   0.0000000   0.0000000  )
        14        Cu1    tau(  14) = (   0.0000000   0.0000000   0.5526369  )
        15        Cu2    tau(  15) = (   0.0000000   0.0000000   0.9722541  )
        16        Cu     tau(  16) = (   0.0000000   0.5000000   0.0000000  )
        17        Cu2    tau(  17) = (   0.0000000   0.5000000   0.5526369  )
        18        Cu1    tau(  18) = (   0.0000000   0.5000000   0.9722541  )
        19        Cu     tau(  19) = (   0.5000000   0.0000000   0.0000000  )
        20        Cu2    tau(  20) = (   0.5000000   0.0000000   0.5526369  )
        21        Cu1    tau(  21) = (   0.5000000   0.0000000   0.9722541  )
        22        Cu     tau(  22) = (   0.5000000   0.5000000   0.0000000  )
        23        Cu1    tau(  23) = (   0.5000000   0.5000000   0.5526369  )
        24        Cu2    tau(  24) = (   0.5000000   0.5000000   0.9722541  )
        25        O      tau(  25) = (   0.0000000   0.0000000   0.2314064  )
        26        O      tau(  26) = (   0.0000000   0.0000000   1.2934846  )
        27        O      tau(  27) = (   0.5000000   0.0000000   0.2314064  )
        28        O      tau(  28) = (   0.5000000   0.0000000   1.2934846  )
        29        O      tau(  29) = (   0.0000000   0.5000000   0.2314064  )
        30        O      tau(  30) = (   0.0000000   0.5000000   1.2934846  )
        31        O      tau(  31) = (   0.5000000   0.5000000   0.2314064  )
        32        O      tau(  32) = (   0.5000000   0.5000000   1.2934846  )
        33        O      tau(  33) = (   0.2500000   0.0000000   0.5769788  )
        34        O      tau(  34) = (   0.2500000   0.0000000   0.9479122  )
        35        O      tau(  35) = (   0.2500000   0.5000000   0.5769788  )
        36        O      tau(  36) = (   0.2500000   0.5000000   0.9479122  )
        37        O      tau(  37) = (   0.7500000   0.0000000   0.5769788  )
        38        O      tau(  38) = (   0.7500000   0.0000000   0.9479122  )
        39        O      tau(  39) = (   0.7500000   0.5000000   0.5769788  )
        40        O      tau(  40) = (   0.7500000   0.5000000   0.9479122  )
        41        O      tau(  41) = (   0.0000000   0.2500000   0.5769788  )
        42        O      tau(  42) = (   0.0000000   0.2500000   0.9479122  )
        43        O      tau(  43) = (   0.5000000   0.2500000   0.5769788  )
        44        O      tau(  44) = (   0.5000000   0.2500000   0.9479122  )
        45        O      tau(  45) = (   0.0000000   0.7500000   0.5769788  )
        46        O      tau(  46) = (   0.0000000   0.7500000   0.9479122  )
        47        O      tau(  47) = (   0.5000000   0.7500000   0.5769788  )
        48        O      tau(  48) = (   0.5000000   0.7500000   0.9479122  )

   Crystallographic axes

     site n.     atom                  positions (cryst. coord.)
         1        Y      tau(   1) = (  0.2500000  0.2500000  0.5000000  )
         2        Y      tau(   2) = (  0.2500000  0.7500000  0.5000000  )
         3        Y      tau(   3) = (  0.7500000  0.2500000  0.5000000  )
         4        Y      tau(   4) = (  0.7500000  0.7500000  0.5000000  )
         5        Ba     tau(   5) = (  0.2500000  0.2500000  0.1945431  )
         6        Ba     tau(   6) = (  0.2500000  0.2500000  0.8054569  )
         7        Ba     tau(   7) = (  0.2500000  0.7500000  0.1945431  )
         8        Ba     tau(   8) = (  0.2500000  0.7500000  0.8054569  )
         9        Ba     tau(   9) = (  0.7500000  0.2500000  0.1945431  )
        10        Ba     tau(  10) = (  0.7500000  0.2500000  0.8054569  )
        11        Ba     tau(  11) = (  0.7500000  0.7500000  0.1945431  )
        12        Ba     tau(  12) = (  0.7500000  0.7500000  0.8054569  )
        13        Cu     tau(  13) = (  0.0000000  0.0000000  0.0000000  )
        14        Cu1    tau(  14) = (  0.0000000  0.0000000  0.3624108  )
        15        Cu2    tau(  15) = (  0.0000000  0.0000000  0.6375892  )
        16        Cu     tau(  16) = (  0.0000000  0.5000000  0.0000000  )
        17        Cu2    tau(  17) = (  0.0000000  0.5000000  0.3624108  )
        18        Cu1    tau(  18) = (  0.0000000  0.5000000  0.6375892  )
        19        Cu     tau(  19) = (  0.5000000  0.0000000  0.0000000  )
        20        Cu2    tau(  20) = (  0.5000000  0.0000000  0.3624108  )
        21        Cu1    tau(  21) = (  0.5000000  0.0000000  0.6375892  )
        22        Cu     tau(  22) = (  0.5000000  0.5000000  0.0000000  )
        23        Cu1    tau(  23) = (  0.5000000  0.5000000  0.3624108  )
        24        Cu2    tau(  24) = (  0.5000000  0.5000000  0.6375892  )
        25        O      tau(  25) = (  0.0000000  0.0000000  0.1517528  )
        26        O      tau(  26) = (  0.0000000  0.0000000  0.8482472  )
        27        O      tau(  27) = (  0.5000000  0.0000000  0.1517528  )
        28        O      tau(  28) = (  0.5000000  0.0000000  0.8482472  )
        29        O      tau(  29) = (  0.0000000  0.5000000  0.1517528  )
        30        O      tau(  30) = (  0.0000000  0.5000000  0.8482472  )
        31        O      tau(  31) = (  0.5000000  0.5000000  0.1517528  )
        32        O      tau(  32) = (  0.5000000  0.5000000  0.8482472  )
        33        O      tau(  33) = (  0.2500000  0.0000000  0.3783738  )
        34        O      tau(  34) = (  0.2500000  0.0000000  0.6216262  )
        35        O      tau(  35) = (  0.2500000  0.5000000  0.3783738  )
        36        O      tau(  36) = (  0.2500000  0.5000000  0.6216262  )
        37        O      tau(  37) = (  0.7500000  0.0000000  0.3783738  )
        38        O      tau(  38) = (  0.7500000  0.0000000  0.6216262  )
        39        O      tau(  39) = (  0.7500000  0.5000000  0.3783738  )
        40        O      tau(  40) = (  0.7500000  0.5000000  0.6216262  )
        41        O      tau(  41) = (  0.0000000  0.2500000  0.3783738  )
        42        O      tau(  42) = (  0.0000000  0.2500000  0.6216262  )
        43        O      tau(  43) = (  0.5000000  0.2500000  0.3783738  )
        44        O      tau(  44) = (  0.5000000  0.2500000  0.6216262  )
        45        O      tau(  45) = (  0.0000000  0.7500000  0.3783738  )
        46        O      tau(  46) = (  0.0000000  0.7500000  0.6216262  )
        47        O      tau(  47) = (  0.5000000  0.7500000  0.3783738  )
        48        O      tau(  48) = (  0.5000000  0.7500000  0.6216262  )

     number of k points=    18  Methfessel-Paxton smearing, width (Ry)=  0.0100
                       cart. coord. in units 2pi/alat
        k(    1) = (   0.0000000   0.0000000   0.0000000), wk =   0.0156250
        k(    2) = (   0.0000000   0.0000000   0.1639461), wk =   0.0312500
        k(    3) = (   0.0000000   0.0000000  -0.3278923), wk =   0.0156250
        k(    4) = (   0.0000000   0.2500000   0.0000000), wk =   0.0625000
        k(    5) = (   0.0000000   0.2500000   0.1639461), wk =   0.1250000
        k(    6) = (   0.0000000   0.2500000  -0.3278923), wk =   0.0625000
        k(    7) = (   0.0000000  -0.5000000   0.0000000), wk =   0.0312500
        k(    8) = (   0.0000000  -0.5000000   0.1639461), wk =   0.0625000
        k(    9) = (   0.0000000  -0.5000000  -0.3278923), wk =   0.0312500
        k(   10) = (   0.2500000   0.2500000   0.0000000), wk =   0.0625000
        k(   11) = (   0.2500000   0.2500000   0.1639461), wk =   0.1250000
        k(   12) = (   0.2500000   0.2500000  -0.3278923), wk =   0.0625000
        k(   13) = (   0.2500000  -0.5000000   0.0000000), wk =   0.0625000
        k(   14) = (   0.2500000  -0.5000000   0.1639461), wk =   0.1250000
        k(   15) = (   0.2500000  -0.5000000  -0.3278923), wk =   0.0625000
        k(   16) = (  -0.5000000  -0.5000000   0.0000000), wk =   0.0156250
        k(   17) = (  -0.5000000  -0.5000000   0.1639461), wk =   0.0312500
        k(   18) = (  -0.5000000  -0.5000000  -0.3278923), wk =   0.0156250

                       cryst. coord.
        k(    1) = (   0.0000000   0.0000000   0.0000000), wk =   0.0156250
        k(    2) = (   0.0000000   0.0000000   0.2500000), wk =   0.0312500
        k(    3) = (   0.0000000   0.0000000  -0.5000000), wk =   0.0156250
        k(    4) = (   0.0000000   0.2500000   0.0000000), wk =   0.0625000
        k(    5) = (   0.0000000   0.2500000   0.2500000), wk =   0.1250000
        k(    6) = (   0.0000000   0.2500000  -0.5000000), wk =   0.0625000
        k(    7) = (   0.0000000  -0.5000000   0.0000000), wk =   0.0312500
        k(    8) = (   0.0000000  -0.5000000   0.2500000), wk =   0.0625000
        k(    9) = (   0.0000000  -0.5000000  -0.5000000), wk =   0.0312500
        k(   10) = (   0.2500000   0.2500000   0.0000000), wk =   0.0625000
        k(   11) = (   0.2500000   0.2500000   0.2500000), wk =   0.1250000
        k(   12) = (   0.2500000   0.2500000  -0.5000000), wk =   0.0625000
        k(   13) = (   0.2500000  -0.5000000   0.0000000), wk =   0.0625000
        k(   14) = (   0.2500000  -0.5000000   0.2500000), wk =   0.1250000
        k(   15) = (   0.2500000  -0.5000000  -0.5000000), wk =   0.0625000
        k(   16) = (  -0.5000000  -0.5000000   0.0000000), wk =   0.0156250
        k(   17) = (  -0.5000000  -0.5000000   0.2500000), wk =   0.0312500
        k(   18) = (  -0.5000000  -0.5000000  -0.5000000), wk =   0.0156250

     Dense  grid:   954065 G-vectors     FFT dimensions: ( 108, 108, 162)

     Smooth grid:   282619 G-vectors     FFT dimensions: (  72,  72, 108)

     Dynamical RAM for                 wfc:      40.16 MB

     Dynamical RAM for     wfc (w. buffer):    1486.09 MB

     Dynamical RAM for             U proj.:       5.39 MB

     Dynamical RAM for  U proj. (w. buff.):     199.48 MB

     Dynamical RAM for           str. fact:      21.84 MB

     Dynamical RAM for           local pot:       0.00 MB

     Dynamical RAM for          nlocal pot:     107.82 MB

     Dynamical RAM for                qrad:      20.88 MB

     Dynamical RAM for          rho,v,vnew:      43.73 MB

     Dynamical RAM for               rhoin:      14.58 MB

     Dynamical RAM for            rho*nmix:     116.46 MB

     Dynamical RAM for           G-vectors:      14.19 MB

     Dynamical RAM for          h,s,v(r/c):       4.07 MB

     Dynamical RAM for          <psi|beta>:       3.64 MB

     Dynamical RAM for                 psi:      80.33 MB

     Dynamical RAM for                hpsi:      80.33 MB

     Dynamical RAM for                spsi:      80.33 MB

     Dynamical RAM for      wfcinit/wfcrot:     113.79 MB

     Dynamical RAM for           addusdens:    1372.08 MB

     Estimated static dynamical RAM per process >       1.91 GB

     Estimated max dynamical RAM per process >       3.36 GB

     Estimated total dynamical RAM >      13.46 GB

     Check: negative core charge=   -0.000002
     Generating pointlists ...
     new r_m :   0.1284 (alat units)  1.8421 (a.u.) for type    1
     new r_m :   0.1483 (alat units)  2.1276 (a.u.) for type    2
     new r_m :   0.0955 (alat units)  1.3694 (a.u.) for type    3
     new r_m :   0.1036 (alat units)  1.4864 (a.u.) for type    4
     new r_m :   0.1036 (alat units)  1.4864 (a.u.) for type    5
     new r_m :   0.0955 (alat units)  1.3694 (a.u.) for type    6

     Initial potential from superposition of free atoms

     starting charge     483.8832, renormalised to     496.0000

     negative rho (up, down):  4.013E-01 4.013E-01

     HUBBARD ENERGY =    0.8820  (Ry)

     STARTING HUBBARD OCCUPATIONS:

     =================== HUBBARD OCCUPATIONS ===================
     ------------------------ ATOM   14 ------------------------
     Tr[ns( 14)] (up, down, total) =   5.00000  3.00000  8.00000
     Atomic magnetic moment for atom  14 =   2.00000
     SPIN  1
     eigenvalues:
       1.000  1.000  1.000  1.000  1.000
     eigenvectors (columns):
       1.000  0.000  0.000  0.000  0.000
       0.000  1.000  0.000  0.000  0.000
       0.000  0.000  1.000  0.000  0.000
       0.000  0.000  0.000  1.000  0.000
       0.000  0.000  0.000  0.000  1.000
     occupation matrix ns (before diag.):
       1.000  0.000  0.000  0.000  0.000
       0.000  1.000  0.000  0.000  0.000
       0.000  0.000  1.000  0.000  0.000
       0.000  0.000  0.000  1.000  0.000
       0.000  0.000  0.000  0.000  1.000
     SPIN  2
     eigenvalues:
       0.600  0.600  0.600  0.600  0.600
     eigenvectors (columns):
       1.000  0.000  0.000  0.000  0.000
       0.000  1.000  0.000  0.000  0.000
       0.000  0.000  1.000  0.000  0.000
       0.000  0.000  0.000  1.000  0.000
       0.000  0.000  0.000  0.000  1.000
     occupation matrix ns (before diag.):
       0.600  0.000  0.000  0.000  0.000
       0.000  0.600  0.000  0.000  0.000
       0.000  0.000  0.600  0.000  0.000
       0.000  0.000  0.000  0.600  0.000
       0.000  0.000  0.000  0.000  0.600
     ------------------------ ATOM   15 ------------------------
     Tr[ns( 15)] (up, down, total) =   3.00000  5.00000  8.00000
     Atomic magnetic moment for atom  15 =  -2.00000
     SPIN  1
     eigenvalues:
       0.600  0.600  0.600  0.600  0.600
     eigenvectors (columns):
       1.000  0.000  0.000  0.000  0.000
       0.000  1.000  0.000  0.000  0.000
       0.000  0.000  1.000  0.000  0.000
       0.000  0.000  0.000  1.000  0.000
       0.000  0.000  0.000  0.000  1.000
     occupation matrix ns (before diag.):
       0.600  0.000  0.000  0.000  0.000
       0.000  0.600  0.000  0.000  0.000
       0.000  0.000  0.600  0.000  0.000
       0.000  0.000  0.000  0.600  0.000
       0.000  0.000  0.000  0.000  0.600
     SPIN  2
     eigenvalues:
       1.000  1.000  1.000  1.000  1.000
     eigenvectors (columns):
       1.000  0.000  0.000  0.000  0.000
       0.000  1.000  0.000  0.000  0.000
       0.000  0.000  1.000  0.000  0.000
       0.000  0.000  0.000  1.000  0.000
       0.000  0.000  0.000  0.000  1.000
     occupation matrix ns (before diag.):
       1.000  0.000  0.000  0.000  0.000
       0.000  1.000  0.000  0.000  0.000
       0.000  0.000  1.000  0.000  0.000
       0.000  0.000  0.000  1.000  0.000
       0.000  0.000  0.000  0.000  1.000
     ------------------------ ATOM   17 ------------------------
     Tr[ns( 17)] (up, down, total) =   3.00000  5.00000  8.00000
     Atomic magnetic moment for atom  17 =  -2.00000
     SPIN  1
     eigenvalues:
       0.600  0.600  0.600  0.600  0.600
     eigenvectors (columns):
       1.000  0.000  0.000  0.000  0.000
       0.000  1.000  0.000  0.000  0.000
       0.000  0.000  1.000  0.000  0.000
       0.000  0.000  0.000  1.000  0.000
       0.000  0.000  0.000  0.000  1.000
     occupation matrix ns (before diag.):
       0.600  0.000  0.000  0.000  0.000
       0.000  0.600  0.000  0.000  0.000
       0.000  0.000  0.600  0.000  0.000
       0.000  0.000  0.000  0.600  0.000
       0.000  0.000  0.000  0.000  0.600
     SPIN  2
     eigenvalues:
       1.000  1.000  1.000  1.000  1.000
     eigenvectors (columns):
       1.000  0.000  0.000  0.000  0.000
       0.000  1.000  0.000  0.000  0.000
       0.000  0.000  1.000  0.000  0.000
       0.000  0.000  0.000  1.000  0.000
       0.000  0.000  0.000  0.000  1.000
     occupation matrix ns (before diag.):
       1.000  0.000  0.000  0.000  0.000
       0.000  1.000  0.000  0.000  0.000
       0.000  0.000  1.000  0.000  0.000
       0.000  0.000  0.000  1.000  0.000
       0.000  0.000  0.000  0.000  1.000
     ------------------------ ATOM   18 ------------------------
     Tr[ns( 18)] (up, down, total) =   5.00000  3.00000  8.00000
     Atomic magnetic moment for atom  18 =   2.00000
     SPIN  1
     eigenvalues:
       1.000  1.000  1.000  1.000  1.000
     eigenvectors (columns):
       1.000  0.000  0.000  0.000  0.000
       0.000  1.000  0.000  0.000  0.000
       0.000  0.000  1.000  0.000  0.000
       0.000  0.000  0.000  1.000  0.000
       0.000  0.000  0.000  0.000  1.000
     occupation matrix ns (before diag.):
       1.000  0.000  0.000  0.000  0.000
       0.000  1.000  0.000  0.000  0.000
       0.000  0.000  1.000  0.000  0.000
       0.000  0.000  0.000  1.000  0.000
       0.000  0.000  0.000  0.000  1.000
     SPIN  2
     eigenvalues:
       0.600  0.600  0.600  0.600  0.600
     eigenvectors (columns):
       1.000  0.000  0.000  0.000  0.000
       0.000  1.000  0.000  0.000  0.000
       0.000  0.000  1.000  0.000  0.000
       0.000  0.000  0.000  1.000  0.000
       0.000  0.000  0.000  0.000  1.000
     occupation matrix ns (before diag.):
       0.600  0.000  0.000  0.000  0.000
       0.000  0.600  0.000  0.000  0.000
       0.000  0.000  0.600  0.000  0.000
       0.000  0.000  0.000  0.600  0.000
       0.000  0.000  0.000  0.000  0.600
     ------------------------ ATOM   20 ------------------------
     Tr[ns( 20)] (up, down, total) =   3.00000  5.00000  8.00000
     Atomic magnetic moment for atom  20 =  -2.00000
     SPIN  1
     eigenvalues:
       0.600  0.600  0.600  0.600  0.600
     eigenvectors (columns):
       1.000  0.000  0.000  0.000  0.000
       0.000  1.000  0.000  0.000  0.000
       0.000  0.000  1.000  0.000  0.000
       0.000  0.000  0.000  1.000  0.000
       0.000  0.000  0.000  0.000  1.000
     occupation matrix ns (before diag.):
       0.600  0.000  0.000  0.000  0.000
       0.000  0.600  0.000  0.000  0.000
       0.000  0.000  0.600  0.000  0.000
       0.000  0.000  0.000  0.600  0.000
       0.000  0.000  0.000  0.000  0.600
     SPIN  2
     eigenvalues:
       1.000  1.000  1.000  1.000  1.000
     eigenvectors (columns):
       1.000  0.000  0.000  0.000  0.000
       0.000  1.000  0.000  0.000  0.000
       0.000  0.000  1.000  0.000  0.000
       0.000  0.000  0.000  1.000  0.000
       0.000  0.000  0.000  0.000  1.000
     occupation matrix ns (before diag.):
       1.000  0.000  0.000  0.000  0.000
       0.000  1.000  0.000  0.000  0.000
       0.000  0.000  1.000  0.000  0.000
       0.000  0.000  0.000  1.000  0.000
       0.000  0.000  0.000  0.000  1.000
     ------------------------ ATOM   21 ------------------------
     Tr[ns( 21)] (up, down, total) =   5.00000  3.00000  8.00000
     Atomic magnetic moment for atom  21 =   2.00000
     SPIN  1
     eigenvalues:
       1.000  1.000  1.000  1.000  1.000
     eigenvectors (columns):
       1.000  0.000  0.000  0.000  0.000
       0.000  1.000  0.000  0.000  0.000
       0.000  0.000  1.000  0.000  0.000
       0.000  0.000  0.000  1.000  0.000
       0.000  0.000  0.000  0.000  1.000
     occupation matrix ns (before diag.):
       1.000  0.000  0.000  0.000  0.000
       0.000  1.000  0.000  0.000  0.000
       0.000  0.000  1.000  0.000  0.000
       0.000  0.000  0.000  1.000  0.000
       0.000  0.000  0.000  0.000  1.000
     SPIN  2
     eigenvalues:
       0.600  0.600  0.600  0.600  0.600
     eigenvectors (columns):
       1.000  0.000  0.000  0.000  0.000
       0.000  1.000  0.000  0.000  0.000
       0.000  0.000  1.000  0.000  0.000
       0.000  0.000  0.000  1.000  0.000
       0.000  0.000  0.000  0.000  1.000
     occupation matrix ns (before diag.):
       0.600  0.000  0.000  0.000  0.000
       0.000  0.600  0.000  0.000  0.000
       0.000  0.000  0.600  0.000  0.000
       0.000  0.000  0.000  0.600  0.000
       0.000  0.000  0.000  0.000  0.600
     ------------------------ ATOM   23 ------------------------
     Tr[ns( 23)] (up, down, total) =   5.00000  3.00000  8.00000
     Atomic magnetic moment for atom  23 =   2.00000
     SPIN  1
     eigenvalues:
       1.000  1.000  1.000  1.000  1.000
     eigenvectors (columns):
       1.000  0.000  0.000  0.000  0.000
       0.000  1.000  0.000  0.000  0.000
       0.000  0.000  1.000  0.000  0.000
       0.000  0.000  0.000  1.000  0.000
       0.000  0.000  0.000  0.000  1.000
     occupation matrix ns (before diag.):
       1.000  0.000  0.000  0.000  0.000
       0.000  1.000  0.000  0.000  0.000
       0.000  0.000  1.000  0.000  0.000
       0.000  0.000  0.000  1.000  0.000
       0.000  0.000  0.000  0.000  1.000
     SPIN  2
     eigenvalues:
       0.600  0.600  0.600  0.600  0.600
     eigenvectors (columns):
       1.000  0.000  0.000  0.000  0.000
       0.000  1.000  0.000  0.000  0.000
       0.000  0.000  1.000  0.000  0.000
       0.000  0.000  0.000  1.000  0.000
       0.000  0.000  0.000  0.000  1.000
     occupation matrix ns (before diag.):
       0.600  0.000  0.000  0.000  0.000
       0.000  0.600  0.000  0.000  0.000
       0.000  0.000  0.600  0.000  0.000
       0.000  0.000  0.000  0.600  0.000
       0.000  0.000  0.000  0.000  0.600
     ------------------------ ATOM   24 ------------------------
     Tr[ns( 24)] (up, down, total) =   3.00000  5.00000  8.00000
     Atomic magnetic moment for atom  24 =  -2.00000
     SPIN  1
     eigenvalues:
       0.600  0.600  0.600  0.600  0.600
     eigenvectors (columns):
       1.000  0.000  0.000  0.000  0.000
       0.000  1.000  0.000  0.000  0.000
       0.000  0.000  1.000  0.000  0.000
       0.000  0.000  0.000  1.000  0.000
       0.000  0.000  0.000  0.000  1.000
     occupation matrix ns (before diag.):
       0.600  0.000  0.000  0.000  0.000
       0.000  0.600  0.000  0.000  0.000
       0.000  0.000  0.600  0.000  0.000
       0.000  0.000  0.000  0.600  0.000
       0.000  0.000  0.000  0.000  0.600
     SPIN  2
     eigenvalues:
       1.000  1.000  1.000  1.000  1.000
     eigenvectors (columns):
       1.000  0.000  0.000  0.000  0.000
       0.000  1.000  0.000  0.000  0.000
       0.000  0.000  1.000  0.000  0.000
       0.000  0.000  0.000  1.000  0.000
       0.000  0.000  0.000  0.000  1.000
     occupation matrix ns (before diag.):
       1.000  0.000  0.000  0.000  0.000
       0.000  1.000  0.000  0.000  0.000
       0.000  0.000  1.000  0.000  0.000
       0.000  0.000  0.000  1.000  0.000
       0.000  0.000  0.000  0.000  1.000

     Number of occupied Hubbard levels =   64.0000

     Atomic wfc used for Hubbard projectors are orthogonalized

     Starting wfcs are  408 randomized atomic wfcs

     total cpu time spent up to now is      165.3 secs

     Self-consistent Calculation

     iteration #  1     ecut=    60.00 Ry     beta= 0.10
     Davidson diagonalization with overlap

---- Real-time Memory Report at c_bands before calling an iterative solver
          2187 MiB given to the printing process from OS
             0 MiB allocation reported by mallinfo(arena+hblkhd)
          1766 MiB available memory on the node where the printing process lives
------------------
     ethr =  1.00E-02,  avg # of iterations =  2.0

     =================== HUBBARD OCCUPATIONS ===================
     ------------------------ ATOM   14 ------------------------
     Tr[ns( 14)] (up, down, total) =   4.86304  4.11496  8.97799
     Atomic magnetic moment for atom  14 =   0.74808
     SPIN  1
     eigenvalues:
       0.954  0.957  0.982  0.982  0.988
     eigenvectors (columns):
      -0.000  1.000  0.000  0.000  0.000
      -0.000  0.000 -0.322 -0.947  0.000
      -0.000  0.000 -0.947  0.322  0.000
       1.000  0.000 -0.000 -0.000 -0.000
       0.000 -0.000  0.000  0.000  1.000
     occupation matrix ns (before diag.):
       0.957 -0.000 -0.000  0.000  0.000
      -0.000  0.982 -0.000  0.000  0.000
      -0.000 -0.000  0.982  0.000  0.000
       0.000  0.000  0.000  0.954 -0.000
       0.000  0.000  0.000 -0.000  0.988
     SPIN  2
     eigenvalues:
       0.328  0.883  0.963  0.963  0.978
     eigenvectors (columns):
       0.000  1.000 -0.000 -0.000  0.000
      -0.000  0.000  0.355  0.935  0.000
      -0.000  0.000  0.935 -0.355  0.000
       1.000 -0.000  0.000  0.000 -0.000
       0.000 -0.000 -0.000 -0.000  1.000
     occupation matrix ns (before diag.):
       0.883 -0.000 -0.000 -0.000  0.000
      -0.000  0.963 -0.000  0.000  0.000
      -0.000 -0.000  0.963  0.000  0.000
      -0.000  0.000  0.000  0.328 -0.000
       0.000  0.000  0.000 -0.000  0.978
     ------------------------ ATOM   15 ------------------------
     Tr[ns( 15)] (up, down, total) =   4.11501  4.86299  8.97800
     Atomic magnetic moment for atom  15 =  -0.74799
     SPIN  1
     eigenvalues:
       0.328  0.883  0.963  0.963  0.977
     eigenvectors (columns):
       0.000  1.000 -0.000 -0.000  0.000
      -0.000  0.000  0.348  0.937  0.000
      -0.000  0.000  0.937 -0.348  0.000
       1.000 -0.000  0.000  0.000 -0.000
       0.000 -0.000 -0.000 -0.000  1.000
     occupation matrix ns (before diag.):
       0.883 -0.000 -0.000 -0.000  0.000
      -0.000  0.963 -0.000  0.000  0.000
      -0.000 -0.000  0.963  0.000  0.000
      -0.000  0.000  0.000  0.328 -0.000
       0.000  0.000  0.000 -0.000  0.977
     SPIN  2
     eigenvalues:
       0.954  0.957  0.982  0.982  0.988
     eigenvectors (columns):
      -0.000  1.000  0.000  0.000  0.000
      -0.000  0.000 -0.330 -0.944  0.000
      -0.000  0.000 -0.944  0.330  0.000
       1.000  0.000 -0.000 -0.000 -0.000
       0.000 -0.000  0.000  0.000  1.000
     occupation matrix ns (before diag.):
       0.957 -0.000 -0.000  0.000  0.000
      -0.000  0.982 -0.000  0.000  0.000
      -0.000 -0.000  0.982  0.000  0.000
       0.000  0.000  0.000  0.954 -0.000
       0.000  0.000  0.000 -0.000  0.988
     ------------------------ ATOM   17 ------------------------
     Tr[ns( 17)] (up, down, total) =   4.11502  4.86301  8.97803
     Atomic magnetic moment for atom  17 =  -0.74800
     SPIN  1
     eigenvalues:
       0.328  0.883  0.963  0.963  0.978
     eigenvectors (columns):
      -0.000  1.000 -0.000 -0.000  0.000
      -0.000  0.000  1.000 -0.000  0.000
      -0.000  0.000  0.000  1.000  0.000
       1.000  0.000  0.000  0.000 -0.000
       0.000 -0.000 -0.000 -0.000  1.000
     occupation matrix ns (before diag.):
       0.883 -0.000 -0.000  0.000  0.000
      -0.000  0.963 -0.000  0.000  0.000
      -0.000 -0.000  0.963  0.000  0.000
       0.000  0.000  0.000  0.328 -0.000
       0.000  0.000  0.000 -0.000  0.978
     SPIN  2
     eigenvalues:
       0.954  0.957  0.982  0.982  0.988
     eigenvectors (columns):
       0.001  1.000  0.000  0.000  0.000
      -0.000  0.000 -1.000  0.000  0.000
      -0.000  0.000 -0.000 -1.000  0.000
       1.000 -0.001 -0.000 -0.000 -0.000
       0.000 -0.000  0.000  0.000  1.000
     occupation matrix ns (before diag.):
       0.957 -0.000 -0.000 -0.000  0.000
      -0.000  0.982 -0.000  0.000  0.000
      -0.000 -0.000  0.982  0.000  0.000
      -0.000  0.000  0.000  0.954 -0.000
       0.000  0.000  0.000 -0.000  0.988
     ------------------------ ATOM   18 ------------------------
     Tr[ns( 18)] (up, down, total) =   4.86303  4.11502  8.97804
     Atomic magnetic moment for atom  18 =   0.74801
     SPIN  1
     eigenvalues:
       0.954  0.957  0.982  0.982  0.988
     eigenvectors (columns):
      -0.002  1.000  0.000  0.000  0.000
      -0.000  0.000 -0.000 -1.000  0.000
      -0.000  0.000 -1.000  0.000  0.000
       1.000  0.002 -0.000 -0.000 -0.000
       0.000 -0.000  0.000  0.000  1.000
     occupation matrix ns (before diag.):
       0.957 -0.000 -0.000  0.000  0.000
      -0.000  0.982 -0.000  0.000  0.000
      -0.000 -0.000  0.982  0.000  0.000
       0.000  0.000  0.000  0.954 -0.000
       0.000  0.000  0.000 -0.000  0.988
     SPIN  2
     eigenvalues:
       0.328  0.883  0.963  0.963  0.978
     eigenvectors (columns):
      -0.000  1.000 -0.000 -0.000  0.000
      -0.000  0.000  0.000  1.000  0.000
      -0.000  0.000  1.000 -0.000  0.000
       1.000  0.000  0.000  0.000 -0.000
       0.000 -0.000 -0.000 -0.000  1.000
     occupation matrix ns (before diag.):
       0.883 -0.000 -0.000  0.000  0.000
      -0.000  0.963 -0.000  0.000  0.000
      -0.000 -0.000  0.963  0.000  0.000
       0.000  0.000  0.000  0.328 -0.000
       0.000  0.000  0.000 -0.000  0.978
     ------------------------ ATOM   20 ------------------------
     Tr[ns( 20)] (up, down, total) =   4.11502  4.86301  8.97803
     Atomic magnetic moment for atom  20 =  -0.74800
     SPIN  1
     eigenvalues:
       0.328  0.883  0.963  0.963  0.978
     eigenvectors (columns):
       0.000  1.000 -0.000 -0.000  0.000
      -0.000  0.000  0.000  1.000  0.000
      -0.000  0.000  1.000 -0.000  0.000
       1.000 -0.000  0.000  0.000 -0.000
       0.000 -0.000 -0.000 -0.000  1.000
     occupation matrix ns (before diag.):
       0.883 -0.000 -0.000 -0.000  0.000
      -0.000  0.963 -0.000  0.000  0.000
      -0.000 -0.000  0.963  0.000  0.000
      -0.000  0.000  0.000  0.328 -0.000
       0.000  0.000  0.000 -0.000  0.978
     SPIN  2
     eigenvalues:
       0.954  0.957  0.982  0.982  0.988
     eigenvectors (columns):
      -0.001  1.000  0.000  0.000  0.000
      -0.000  0.000 -0.000 -1.000  0.000
      -0.000  0.000 -1.000  0.000  0.000
       1.000  0.001 -0.000 -0.000 -0.000
       0.000 -0.000  0.000  0.000  1.000
     occupation matrix ns (before diag.):
       0.957 -0.000 -0.000  0.000  0.000
      -0.000  0.982 -0.000  0.000  0.000
      -0.000 -0.000  0.982  0.000  0.000
       0.000  0.000  0.000  0.954 -0.000
       0.000  0.000  0.000 -0.000  0.988
     ------------------------ ATOM   21 ------------------------
     Tr[ns( 21)] (up, down, total) =   4.86303  4.11502  8.97804
     Atomic magnetic moment for atom  21 =   0.74801
     SPIN  1
     eigenvalues:
       0.954  0.957  0.982  0.982  0.988
     eigenvectors (columns):
       0.002  1.000  0.000  0.000  0.000
      -0.000  0.000 -1.000  0.000  0.000
      -0.000  0.000 -0.000 -1.000  0.000
       1.000 -0.002 -0.000 -0.000 -0.000
       0.000 -0.000  0.000  0.000  1.000
     occupation matrix ns (before diag.):
       0.957 -0.000 -0.000 -0.000  0.000
      -0.000  0.982 -0.000  0.000  0.000
      -0.000 -0.000  0.982  0.000  0.000
      -0.000  0.000  0.000  0.954 -0.000
       0.000  0.000  0.000 -0.000  0.988
     SPIN  2
     eigenvalues:
       0.328  0.883  0.963  0.963  0.978
     eigenvectors (columns):
       0.000  1.000 -0.000 -0.000  0.000
      -0.000  0.000  1.000 -0.000  0.000
      -0.000  0.000  0.000  1.000  0.000
       1.000 -0.000  0.000  0.000 -0.000
       0.000 -0.000 -0.000 -0.000  1.000
     occupation matrix ns (before diag.):
       0.883 -0.000 -0.000 -0.000  0.000
      -0.000  0.963 -0.000  0.000  0.000
      -0.000 -0.000  0.963  0.000  0.000
      -0.000  0.000  0.000  0.328 -0.000
       0.000  0.000  0.000 -0.000  0.978
     ------------------------ ATOM   23 ------------------------
     Tr[ns( 23)] (up, down, total) =   4.86296  4.11505  8.97801
     Atomic magnetic moment for atom  23 =   0.74792
     SPIN  1
     eigenvalues:
       0.954  0.957  0.982  0.982  0.988
     eigenvectors (columns):
      -0.000  1.000  0.000  0.000  0.000
      -0.000  0.000 -0.336 -0.942  0.000
      -0.000  0.000 -0.942  0.336  0.000
       1.000  0.000 -0.000 -0.000 -0.000
       0.000 -0.000  0.000  0.000  1.000
     occupation matrix ns (before diag.):
       0.957 -0.000 -0.000  0.000  0.000
      -0.000  0.982 -0.000  0.000  0.000
      -0.000 -0.000  0.982  0.000  0.000
       0.000  0.000  0.000  0.954 -0.000
       0.000  0.000  0.000 -0.000  0.988
     SPIN  2
     eigenvalues:
       0.328  0.883  0.963  0.963  0.977
     eigenvectors (columns):
       0.000  1.000 -0.000 -0.000  0.000
      -0.000  0.000  0.331  0.944  0.000
      -0.000  0.000  0.944 -0.331  0.000
       1.000 -0.000  0.000  0.000 -0.000
       0.000 -0.000 -0.000 -0.000  1.000
     occupation matrix ns (before diag.):
       0.883 -0.000 -0.000 -0.000  0.000
      -0.000  0.963 -0.000  0.000  0.000
      -0.000 -0.000  0.963  0.000  0.000
      -0.000  0.000  0.000  0.328 -0.000
       0.000  0.000  0.000 -0.000  0.977
     ------------------------ ATOM   24 ------------------------
     Tr[ns( 24)] (up, down, total) =   4.11508  4.86298  8.97805
     Atomic magnetic moment for atom  24 =  -0.74790
     SPIN  1
     eigenvalues:
       0.328  0.883  0.963  0.963  0.978
     eigenvectors (columns):
       0.000  1.000 -0.000 -0.000  0.000
      -0.000  0.000  0.361  0.933  0.000
      -0.000  0.000  0.933 -0.361  0.000
       1.000  0.000  0.000  0.000 -0.000
       0.000 -0.000 -0.000 -0.000  1.000
     occupation matrix ns (before diag.):
       0.883 -0.000 -0.000 -0.000  0.000
      -0.000  0.963 -0.000  0.000  0.000
      -0.000 -0.000  0.963  0.000  0.000
      -0.000  0.000  0.000  0.328 -0.000
       0.000  0.000  0.000 -0.000  0.978
     SPIN  2
     eigenvalues:
       0.954  0.957  0.982  0.982  0.988
     eigenvectors (columns):
       0.000  1.000  0.000  0.000  0.000
      -0.000  0.000 -0.347 -0.938  0.000
      -0.000  0.000 -0.938  0.347  0.000
       1.000 -0.000 -0.000 -0.000 -0.000
       0.000 -0.000  0.000  0.000  1.000
     occupation matrix ns (before diag.):
       0.957 -0.000 -0.000  0.000  0.000
      -0.000  0.982 -0.000  0.000  0.000
      -0.000 -0.000  0.982  0.000  0.000
       0.000  0.000  0.000  0.954 -0.000
       0.000  0.000  0.000 -0.000  0.988

     Number of occupied Hubbard levels =   71.8242

     negative rho (up, down):  3.965E-01 3.965E-01

     HUBBARD ENERGY =    0.4033  (Ry)

     total cpu time spent up to now is      449.2 secs

     total energy              =   -6555.21502006 Ry
     estimated scf accuracy    <       7.51910452 Ry

     total magnetization       =    -0.00 Bohr mag/cell
     absolute magnetization    =     7.56 Bohr mag/cell

     iteration #  2     ecut=    60.00 Ry     beta= 0.10
     Davidson diagonalization with overlap

---- Real-time Memory Report at c_bands before calling an iterative solver
          3486 MiB given to the printing process from OS
             0 MiB allocation reported by mallinfo(arena+hblkhd)
          5456 MiB available memory on the node where the printing process lives
------------------
     ethr =  1.52E-03,  avg # of iterations =  1.8

     =================== HUBBARD OCCUPATIONS ===================
     ------------------------ ATOM   14 ------------------------
     Tr[ns( 14)] (up, down, total) =   4.87167  4.18345  9.05512
     Atomic magnetic moment for atom  14 =   0.68822
     SPIN  1
     eigenvalues:
       0.960  0.961  0.982  0.982  0.987
     eigenvectors (columns):
       0.000  1.000  0.000  0.000  0.000
      -0.000  0.000 -0.332 -0.943  0.000
      -0.000  0.000 -0.943  0.332  0.000
       1.000 -0.000 -0.000 -0.000 -0.000
       0.000 -0.000  0.000  0.000  1.000
     occupation matrix ns (before diag.):
       0.961 -0.000 -0.000  0.000  0.000
      -0.000  0.982 -0.000  0.000  0.000
      -0.000 -0.000  0.982  0.000  0.000
       0.000  0.000  0.000  0.960 -0.000
       0.000  0.000  0.000 -0.000  0.987
     SPIN  2
     eigenvalues:
       0.340  0.926  0.970  0.970  0.978
     eigenvectors (columns):
      -0.000 -1.000 -0.000 -0.000  0.000
       0.000 -0.000  0.369  0.929  0.000
       0.000 -0.000  0.929 -0.369  0.000
      -1.000 -0.000  0.000  0.000 -0.000
      -0.000  0.000 -0.000 -0.000  1.000
     occupation matrix ns (before diag.):
       0.926 -0.000 -0.000 -0.000  0.000
      -0.000  0.970 -0.000  0.000  0.000
      -0.000 -0.000  0.970  0.000  0.000
      -0.000  0.000  0.000  0.340 -0.000
       0.000  0.000  0.000 -0.000  0.978
     ------------------------ ATOM   15 ------------------------
     Tr[ns( 15)] (up, down, total) =   4.18342  4.87162  9.05504
     Atomic magnetic moment for atom  15 =  -0.68820
     SPIN  1
     eigenvalues:
       0.340  0.926  0.970  0.970  0.978
     eigenvectors (columns):
      -0.000 -1.000 -0.000 -0.000  0.000
       0.000 -0.000  0.296  0.955  0.000
       0.000 -0.000  0.955 -0.296  0.000
      -1.000 -0.000  0.000  0.000 -0.000
      -0.000  0.000 -0.000 -0.000  1.000
     occupation matrix ns (before diag.):
       0.926 -0.000 -0.000 -0.000  0.000
      -0.000  0.970 -0.000  0.000  0.000
      -0.000 -0.000  0.970  0.000  0.000
      -0.000  0.000  0.000  0.340 -0.000
       0.000  0.000  0.000 -0.000  0.978
     SPIN  2
     eigenvalues:
       0.960  0.961  0.982  0.982  0.987
     eigenvectors (columns):
      -0.000  1.000  0.000  0.000  0.000
      -0.000  0.000 -0.332 -0.943  0.000
      -0.000  0.000 -0.943  0.332  0.000
       1.000  0.000 -0.000 -0.000 -0.000
       0.000 -0.000  0.000  0.000  1.000
     occupation matrix ns (before diag.):
       0.961 -0.000 -0.000  0.000  0.000
      -0.000  0.982 -0.000  0.000  0.000
      -0.000 -0.000  0.982  0.000  0.000
       0.000  0.000  0.000  0.960 -0.000
       0.000  0.000  0.000 -0.000  0.987
     ------------------------ ATOM   17 ------------------------
     Tr[ns( 17)] (up, down, total) =   4.18338  4.87163  9.05502
     Atomic magnetic moment for atom  17 =  -0.68825
     SPIN  1
     eigenvalues:
       0.340  0.926  0.970  0.970  0.978
     eigenvectors (columns):
       0.000 -1.000 -0.000 -0.000  0.000
       0.000 -0.000  1.000 -0.000  0.000
       0.000 -0.000  0.000  1.000  0.000
      -1.000 -0.000  0.000  0.000 -0.000
      -0.000  0.000 -0.000 -0.000  1.000
     occupation matrix ns (before diag.):
       0.926 -0.000 -0.000  0.000  0.000
      -0.000  0.970 -0.000  0.000  0.000
      -0.000 -0.000  0.970  0.000  0.000
       0.000  0.000  0.000  0.340 -0.000
       0.000  0.000  0.000 -0.000  0.978
     SPIN  2
     eigenvalues:
       0.960  0.961  0.982  0.982  0.987
     eigenvectors (columns):
       0.001  1.000  0.000  0.000  0.000
      -0.000  0.000 -1.000  0.000  0.000
      -0.000  0.000 -0.000 -1.000  0.000
       1.000 -0.001 -0.000 -0.000 -0.000
       0.000 -0.000  0.000  0.000  1.000
     occupation matrix ns (before diag.):
       0.961 -0.000 -0.000 -0.000  0.000
      -0.000  0.982 -0.000  0.000  0.000
      -0.000 -0.000  0.982  0.000  0.000
      -0.000  0.000  0.000  0.960 -0.000
       0.000  0.000  0.000 -0.000  0.987
     ------------------------ ATOM   18 ------------------------
     Tr[ns( 18)] (up, down, total) =   4.87164  4.18339  9.05503
     Atomic magnetic moment for atom  18 =   0.68825
     SPIN  1
     eigenvalues:
       0.960  0.961  0.982  0.982  0.987
     eigenvectors (columns):
      -0.003  1.000  0.000  0.000  0.000
      -0.000  0.000 -1.000  0.000  0.000
      -0.000  0.000 -0.000 -1.000  0.000
       1.000  0.003 -0.000 -0.000 -0.000
       0.000 -0.000  0.000  0.000  1.000
     occupation matrix ns (before diag.):
       0.961 -0.000 -0.000  0.000  0.000
      -0.000  0.982 -0.000  0.000  0.000
      -0.000 -0.000  0.982  0.000  0.000
       0.000  0.000  0.000  0.960 -0.000
       0.000  0.000  0.000 -0.000  0.987
     SPIN  2
     eigenvalues:
       0.340  0.926  0.970  0.970  0.978
     eigenvectors (columns):
       0.000 -1.000 -0.000 -0.000  0.000
       0.000 -0.000  0.000  1.000  0.000
       0.000 -0.000  1.000 -0.000  0.000
      -1.000 -0.000  0.000  0.000 -0.000
      -0.000  0.000 -0.000 -0.000  1.000
     occupation matrix ns (before diag.):
       0.926 -0.000 -0.000  0.000  0.000
      -0.000  0.970 -0.000  0.000  0.000
      -0.000 -0.000  0.970  0.000  0.000
       0.000  0.000  0.000  0.340 -0.000
       0.000  0.000  0.000 -0.000  0.978
     ------------------------ ATOM   20 ------------------------
     Tr[ns( 20)] (up, down, total) =   4.18338  4.87163  9.05502
     Atomic magnetic moment for atom  20 =  -0.68825
     SPIN  1
     eigenvalues:
       0.340  0.926  0.970  0.970  0.978
     eigenvectors (columns):
      -0.000 -1.000 -0.000 -0.000  0.000
       0.000 -0.000  0.000  1.000  0.000
       0.000 -0.000  1.000 -0.000  0.000
      -1.000  0.000  0.000  0.000 -0.000
      -0.000  0.000 -0.000 -0.000  1.000
     occupation matrix ns (before diag.):
       0.926 -0.000 -0.000 -0.000  0.000
      -0.000  0.970 -0.000  0.000  0.000
      -0.000 -0.000  0.970  0.000  0.000
      -0.000  0.000  0.000  0.340 -0.000
       0.000  0.000  0.000 -0.000  0.978
     SPIN  2
     eigenvalues:
       0.960  0.961  0.982  0.982  0.987
     eigenvectors (columns):
      -0.001  1.000  0.000  0.000  0.000
      -0.000  0.000 -0.000 -1.000  0.000
      -0.000  0.000 -1.000  0.000  0.000
       1.000  0.001 -0.000 -0.000 -0.000
       0.000 -0.000  0.000  0.000  1.000
     occupation matrix ns (before diag.):
       0.961 -0.000 -0.000  0.000  0.000
      -0.000  0.982 -0.000  0.000  0.000
      -0.000 -0.000  0.982  0.000  0.000
       0.000  0.000  0.000  0.960 -0.000
       0.000  0.000  0.000 -0.000  0.987
     ------------------------ ATOM   21 ------------------------
     Tr[ns( 21)] (up, down, total) =   4.87164  4.18339  9.05503
     Atomic magnetic moment for atom  21 =   0.68825
     SPIN  1
     eigenvalues:
       0.960  0.961  0.982  0.982  0.987
     eigenvectors (columns):
       0.003  1.000  0.000  0.000  0.000
      -0.000  0.000 -0.000 -1.000  0.000
      -0.000  0.000 -1.000  0.000  0.000
       1.000 -0.003 -0.000 -0.000 -0.000
       0.000 -0.000  0.000  0.000  1.000
     occupation matrix ns (before diag.):
       0.961 -0.000 -0.000 -0.000  0.000
      -0.000  0.982 -0.000  0.000  0.000
      -0.000 -0.000  0.982  0.000  0.000
      -0.000  0.000  0.000  0.960 -0.000
       0.000  0.000  0.000 -0.000  0.987
     SPIN  2
     eigenvalues:
       0.340  0.926  0.970  0.970  0.978
     eigenvectors (columns):
      -0.000 -1.000 -0.000 -0.000  0.000
       0.000 -0.000  1.000 -0.000  0.000
       0.000 -0.000  0.000  1.000  0.000
      -1.000  0.000  0.000  0.000 -0.000
      -0.000  0.000 -0.000 -0.000  1.000
     occupation matrix ns (before diag.):
       0.926 -0.000 -0.000 -0.000  0.000
      -0.000  0.970 -0.000  0.000  0.000
      -0.000 -0.000  0.970  0.000  0.000
      -0.000  0.000  0.000  0.340 -0.000
       0.000  0.000  0.000 -0.000  0.978
     ------------------------ ATOM   23 ------------------------
     Tr[ns( 23)] (up, down, total) =   4.87163  4.18344  9.05507
     Atomic magnetic moment for atom  23 =   0.68819
     SPIN  1
     eigenvalues:
       0.960  0.961  0.982  0.982  0.987
     eigenvectors (columns):
      -0.000  1.000  0.000  0.000  0.000
      -0.000  0.000 -0.339 -0.941  0.000
      -0.000  0.000 -0.941  0.339  0.000
       1.000  0.000 -0.000 -0.000 -0.000
       0.000 -0.000  0.000  0.000  1.000
     occupation matrix ns (before diag.):
       0.961 -0.000 -0.000  0.000  0.000
      -0.000  0.982 -0.000  0.000  0.000
      -0.000 -0.000  0.982  0.000  0.000
       0.000  0.000  0.000  0.960 -0.000
       0.000  0.000  0.000 -0.000  0.987
     SPIN  2
     eigenvalues:
       0.340  0.926  0.970  0.970  0.978
     eigenvectors (columns):
      -0.000 -1.000 -0.000 -0.000  0.000
       0.000 -0.000  0.353  0.936  0.000
       0.000 -0.000  0.936 -0.353  0.000
      -1.000  0.000  0.000  0.000 -0.000
      -0.000  0.000 -0.000 -0.000  1.000
     occupation matrix ns (before diag.):
       0.926 -0.000 -0.000 -0.000  0.000
      -0.000  0.970 -0.000  0.000  0.000
      -0.000 -0.000  0.970  0.000  0.000
      -0.000  0.000  0.000  0.340 -0.000
       0.000  0.000  0.000 -0.000  0.978
     ------------------------ ATOM   24 ------------------------
     Tr[ns( 24)] (up, down, total) =   4.18346  4.87162  9.05509
     Atomic magnetic moment for atom  24 =  -0.68816
     SPIN  1
     eigenvalues:
       0.340  0.926  0.970  0.970  0.978
     eigenvectors (columns):
       0.000 -1.000 -0.000 -0.000  0.000
       0.000 -0.000  0.400  0.916  0.000
       0.000 -0.000  0.916 -0.400  0.000
      -1.000 -0.000  0.000  0.000 -0.000
      -0.000  0.000 -0.000 -0.000  1.000
     occupation matrix ns (before diag.):
       0.926 -0.000 -0.000 -0.000  0.000
      -0.000  0.970 -0.000  0.000  0.000
      -0.000 -0.000  0.970  0.000  0.000
      -0.000  0.000  0.000  0.340 -0.000
       0.000  0.000  0.000 -0.000  0.978
     SPIN  2
     eigenvalues:
       0.960  0.961  0.982  0.982  0.987
     eigenvectors (columns):
      -0.000  1.000  0.000  0.000  0.000
      -0.000  0.000 -0.349 -0.937  0.000
      -0.000  0.000 -0.937  0.349  0.000
       1.000  0.000 -0.000 -0.000 -0.000
       0.000 -0.000  0.000  0.000  1.000
     occupation matrix ns (before diag.):
       0.961 -0.000 -0.000  0.000  0.000
      -0.000  0.982 -0.000  0.000  0.000
      -0.000 -0.000  0.982  0.000  0.000
       0.000  0.000  0.000  0.960 -0.000
       0.000  0.000  0.000 -0.000  0.987

     Number of occupied Hubbard levels =   72.4404

     negative rho (up, down):  3.841E-01 3.841E-01

     HUBBARD ENERGY =    0.3932  (Ry)

     total cpu time spent up to now is      694.2 secs

     total energy              =   -6553.94417526 Ry
     estimated scf accuracy    <       4.44577974 Ry

     total magnetization       =     0.00 Bohr mag/cell
     absolute magnetization    =     7.10 Bohr mag/cell

     iteration #  3     ecut=    60.00 Ry     beta= 0.10
     Davidson diagonalization with overlap

---- Real-time Memory Report at c_bands before calling an iterative solver
          3492 MiB given to the printing process from OS
             0 MiB allocation reported by mallinfo(arena+hblkhd)
          5463 MiB available memory on the node where the printing process lives
------------------
     ethr =  8.96E-04,  avg # of iterations =  3.3

     =================== HUBBARD OCCUPATIONS ===================
     ------------------------ ATOM   14 ------------------------
     Tr[ns( 14)] (up, down, total) =   4.89583  4.50652  9.40235
     Atomic magnetic moment for atom  14 =   0.38932
     SPIN  1
     eigenvalues:
       0.958  0.973  0.987  0.987  0.991
     eigenvectors (columns):
      -0.000  1.000 -0.000 -0.000  0.000
      -0.000  0.000  0.349  0.937  0.000
      -0.000  0.000  0.937 -0.349  0.000
       1.000  0.000  0.000  0.000 -0.000
       0.000 -0.000 -0.000 -0.000  1.000
     occupation matrix ns (before diag.):
       0.973 -0.000 -0.000  0.000  0.000
      -0.000  0.987 -0.000  0.000  0.000
      -0.000 -0.000  0.987  0.000  0.000
       0.000  0.000  0.000  0.958 -0.000
       0.000  0.000  0.000 -0.000  0.991
     SPIN  2
     eigenvalues:
       0.607  0.954  0.980  0.980  0.985
     eigenvectors (columns):
      -0.000  1.000 -0.000 -0.000  0.000
      -0.000  0.000  0.295  0.956  0.000
      -0.000  0.000  0.956 -0.295  0.000
       1.000  0.000  0.000  0.000 -0.000
       0.000 -0.000 -0.000 -0.000  1.000
     occupation matrix ns (before diag.):
       0.954 -0.000 -0.000  0.000  0.000
      -0.000  0.980 -0.000  0.000  0.000
      -0.000 -0.000  0.980  0.000  0.000
       0.000  0.000  0.000  0.607 -0.000
       0.000  0.000  0.000 -0.000  0.985
     ------------------------ ATOM   15 ------------------------
     Tr[ns( 15)] (up, down, total) =   4.50664  4.89584  9.40247
     Atomic magnetic moment for atom  15 =  -0.38920
     SPIN  1
     eigenvalues:
       0.607  0.954  0.980  0.980  0.985
     eigenvectors (columns):
      -0.000  1.000 -0.000 -0.000  0.000
      -0.000  0.000  0.322  0.947  0.000
      -0.000  0.000  0.947 -0.322  0.000
       1.000  0.000  0.000  0.000 -0.000
       0.000 -0.000 -0.000 -0.000  1.000
     occupation matrix ns (before diag.):
       0.954 -0.000 -0.000  0.000  0.000
      -0.000  0.980 -0.000  0.000  0.000
      -0.000 -0.000  0.980  0.000  0.000
       0.000  0.000  0.000  0.607 -0.000
       0.000  0.000  0.000 -0.000  0.985
     SPIN  2
     eigenvalues:
       0.958  0.973  0.987  0.987  0.991
     eigenvectors (columns):
      -0.000  1.000 -0.000 -0.000  0.000
      -0.000  0.000  0.334  0.943  0.000
      -0.000  0.000  0.943 -0.334  0.000
       1.000  0.000  0.000  0.000 -0.000
       0.000 -0.000 -0.000 -0.000  1.000
     occupation matrix ns (before diag.):
       0.973 -0.000 -0.000  0.000  0.000
      -0.000  0.987 -0.000  0.000  0.000
      -0.000 -0.000  0.987  0.000  0.000
       0.000  0.000  0.000  0.958 -0.000
       0.000  0.000  0.000 -0.000  0.991
     ------------------------ ATOM   17 ------------------------
     Tr[ns( 17)] (up, down, total) =   4.50666  4.89585  9.40251
     Atomic magnetic moment for atom  17 =  -0.38918
     SPIN  1
     eigenvalues:
       0.607  0.954  0.980  0.980  0.985
     eigenvectors (columns):
       0.000  1.000 -0.000 -0.000  0.000
      -0.000  0.000  1.000 -0.000  0.000
      -0.000  0.000  0.000  1.000  0.000
       1.000 -0.000  0.000  0.000 -0.000
       0.000 -0.000 -0.000 -0.000  1.000
     occupation matrix ns (before diag.):
       0.954 -0.000 -0.000 -0.000  0.000
      -0.000  0.980 -0.000  0.000  0.000
      -0.000 -0.000  0.980  0.000  0.000
      -0.000  0.000  0.000  0.607 -0.000
       0.000  0.000  0.000 -0.000  0.985
     SPIN  2
     eigenvalues:
       0.958  0.973  0.987  0.987  0.991
     eigenvectors (columns):
      -0.000  1.000 -0.000 -0.000  0.000
      -0.000  0.000  1.000 -0.000  0.000
      -0.000  0.000  0.000  1.000  0.000
       1.000  0.000  0.000  0.000 -0.000
       0.000 -0.000 -0.000 -0.000  1.000
     occupation matrix ns (before diag.):
       0.973 -0.000 -0.000  0.000  0.000
      -0.000  0.987 -0.000  0.000  0.000
      -0.000 -0.000  0.987  0.000  0.000
       0.000  0.000  0.000  0.958 -0.000
       0.000  0.000  0.000 -0.000  0.991
     ------------------------ ATOM   18 ------------------------
     Tr[ns( 18)] (up, down, total) =   4.89584  4.50663  9.40247
     Atomic magnetic moment for atom  18 =   0.38922
     SPIN  1
     eigenvalues:
       0.958  0.973  0.987  0.987  0.991
     eigenvectors (columns):
       0.000  1.000 -0.000 -0.000  0.000
      -0.000  0.000  1.000 -0.000  0.000
      -0.000  0.000  0.000  1.000  0.000
       1.000 -0.000  0.000  0.000 -0.000
       0.000 -0.000 -0.000 -0.000  1.000
     occupation matrix ns (before diag.):
       0.973 -0.000 -0.000 -0.000  0.000
      -0.000  0.987 -0.000  0.000  0.000
      -0.000 -0.000  0.987  0.000  0.000
      -0.000  0.000  0.000  0.958 -0.000
       0.000  0.000  0.000 -0.000  0.991
     SPIN  2
     eigenvalues:
       0.607  0.954  0.980  0.980  0.985
     eigenvectors (columns):
      -0.000  1.000 -0.000 -0.000  0.000
      -0.000  0.000  0.000  1.000  0.000
      -0.000  0.000  1.000 -0.000  0.000
       1.000  0.000  0.000  0.000 -0.000
       0.000 -0.000 -0.000 -0.000  1.000
     occupation matrix ns (before diag.):
       0.954 -0.000 -0.000  0.000  0.000
      -0.000  0.980 -0.000  0.000  0.000
      -0.000 -0.000  0.980  0.000  0.000
       0.000  0.000  0.000  0.607 -0.000
       0.000  0.000  0.000 -0.000  0.985
     ------------------------ ATOM   20 ------------------------
     Tr[ns( 20)] (up, down, total) =   4.50666  4.89585  9.40251
     Atomic magnetic moment for atom  20 =  -0.38918
     SPIN  1
     eigenvalues:
       0.607  0.954  0.980  0.980  0.985
     eigenvectors (columns):
      -0.000  1.000 -0.000 -0.000  0.000
      -0.000  0.000  0.000  1.000  0.000
      -0.000  0.000  1.000 -0.000  0.000
       1.000  0.000  0.000  0.000 -0.000
       0.000 -0.000 -0.000 -0.000  1.000
     occupation matrix ns (before diag.):
       0.954 -0.000 -0.000  0.000  0.000
      -0.000  0.980 -0.000  0.000  0.000
      -0.000 -0.000  0.980  0.000  0.000
       0.000  0.000  0.000  0.607 -0.000
       0.000  0.000  0.000 -0.000  0.985
     SPIN  2
     eigenvalues:
       0.958  0.973  0.987  0.987  0.991
     eigenvectors (columns):
       0.000  1.000 -0.000 -0.000  0.000
      -0.000  0.000  0.000  1.000  0.000
      -0.000  0.000  1.000 -0.000  0.000
       1.000 -0.000  0.000  0.000 -0.000
       0.000 -0.000 -0.000 -0.000  1.000
     occupation matrix ns (before diag.):
       0.973 -0.000 -0.000 -0.000  0.000
      -0.000  0.987 -0.000  0.000  0.000
      -0.000 -0.000  0.987  0.000  0.000
      -0.000  0.000  0.000  0.958 -0.000
       0.000  0.000  0.000 -0.000  0.991
     ------------------------ ATOM   21 ------------------------
     Tr[ns( 21)] (up, down, total) =   4.89584  4.50663  9.40247
     Atomic magnetic moment for atom  21 =   0.38922
     SPIN  1
     eigenvalues:
       0.958  0.973  0.987  0.987  0.991
     eigenvectors (columns):
      -0.000  1.000 -0.000 -0.000  0.000
      -0.000  0.000  0.000  1.000  0.000
      -0.000  0.000  1.000 -0.000  0.000
       1.000  0.000  0.000  0.000 -0.000
       0.000 -0.000 -0.000 -0.000  1.000
     occupation matrix ns (before diag.):
       0.973 -0.000 -0.000  0.000  0.000
      -0.000  0.987 -0.000  0.000  0.000
      -0.000 -0.000  0.987  0.000  0.000
       0.000  0.000  0.000  0.958 -0.000
       0.000  0.000  0.000 -0.000  0.991
     SPIN  2
     eigenvalues:
       0.607  0.954  0.980  0.980  0.985
     eigenvectors (columns):
       0.000  1.000 -0.000 -0.000  0.000
      -0.000  0.000  1.000 -0.000  0.000
      -0.000  0.000  0.000  1.000  0.000
       1.000 -0.000  0.000  0.000 -0.000
       0.000 -0.000 -0.000 -0.000  1.000
     occupation matrix ns (before diag.):
       0.954 -0.000 -0.000 -0.000  0.000
      -0.000  0.980 -0.000  0.000  0.000
      -0.000 -0.000  0.980  0.000  0.000
      -0.000  0.000  0.000  0.607 -0.000
       0.000  0.000  0.000 -0.000  0.985
     ------------------------ ATOM   23 ------------------------
     Tr[ns( 23)] (up, down, total) =   4.89584  4.50654  9.40238
     Atomic magnetic moment for atom  23 =   0.38930
     SPIN  1
     eigenvalues:
       0.958  0.973  0.987  0.987  0.991
     eigenvectors (columns):
      -0.000  1.000 -0.000 -0.000  0.000
      -0.000  0.000  0.324  0.946  0.000
      -0.000  0.000  0.946 -0.324  0.000
       1.000  0.000  0.000  0.000 -0.000
       0.000 -0.000 -0.000 -0.000  1.000
     occupation matrix ns (before diag.):
       0.973 -0.000 -0.000  0.000  0.000
      -0.000  0.987 -0.000  0.000  0.000
      -0.000 -0.000  0.987  0.000  0.000
       0.000  0.000  0.000  0.958 -0.000
       0.000  0.000  0.000 -0.000  0.991
     SPIN  2
     eigenvalues:
       0.607  0.954  0.980  0.980  0.985
     eigenvectors (columns):
      -0.000  1.000 -0.000 -0.000  0.000
      -0.000  0.000  0.335  0.942  0.000
      -0.000  0.000  0.942 -0.335  0.000
       1.000  0.000  0.000  0.000 -0.000
       0.000 -0.000 -0.000 -0.000  1.000
     occupation matrix ns (before diag.):
       0.954 -0.000 -0.000  0.000  0.000
      -0.000  0.980 -0.000  0.000  0.000
      -0.000 -0.000  0.980  0.000  0.000
       0.000  0.000  0.000  0.607 -0.000
       0.000  0.000  0.000 -0.000  0.985
     ------------------------ ATOM   24 ------------------------
     Tr[ns( 24)] (up, down, total) =   4.50659  4.89582  9.40241
     Atomic magnetic moment for atom  24 =  -0.38923
     SPIN  1
     eigenvalues:
       0.607  0.954  0.980  0.980  0.985
     eigenvectors (columns):
      -0.000  1.000 -0.000 -0.000  0.000
      -0.000  0.000  0.317  0.948  0.000
      -0.000  0.000  0.948 -0.317  0.000
       1.000  0.000  0.000  0.000 -0.000
       0.000 -0.000 -0.000 -0.000  1.000
     occupation matrix ns (before diag.):
       0.954 -0.000 -0.000  0.000  0.000
      -0.000  0.980 -0.000  0.000  0.000
      -0.000 -0.000  0.980  0.000  0.000
       0.000  0.000  0.000  0.607 -0.000
       0.000  0.000  0.000 -0.000  0.985
     SPIN  2
     eigenvalues:
       0.958  0.973  0.987  0.987  0.991
     eigenvectors (columns):
      -0.000  1.000 -0.000 -0.000  0.000
      -0.000  0.000  0.318  0.948  0.000
      -0.000  0.000  0.948 -0.318  0.000
       1.000  0.000  0.000  0.000 -0.000
       0.000 -0.000 -0.000 -0.000  1.000
     occupation matrix ns (before diag.):
       0.973 -0.000 -0.000  0.000  0.000
      -0.000  0.987 -0.000  0.000  0.000
      -0.000 -0.000  0.987  0.000  0.000
       0.000  0.000  0.000  0.958 -0.000
       0.000  0.000  0.000 -0.000  0.991

     Number of occupied Hubbard levels =   75.2196

     negative rho (up, down):  3.834E-01 3.834E-01

     HUBBARD ENERGY =    0.3932  (Ry)

     total cpu time spent up to now is      992.4 secs

     total energy              =   -6554.60338181 Ry
     estimated scf accuracy    <       1.50040339 Ry

     total magnetization       =     0.00 Bohr mag/cell
     absolute magnetization    =     4.73 Bohr mag/cell

     iteration #  4     ecut=    60.00 Ry     beta= 0.10
     Davidson diagonalization with overlap

---- Real-time Memory Report at c_bands before calling an iterative solver
          3500 MiB given to the printing process from OS
             0 MiB allocation reported by mallinfo(arena+hblkhd)
          5456 MiB available memory on the node where the printing process lives
------------------
     ethr =  3.03E-04,  avg # of iterations =  2.0

     =================== HUBBARD OCCUPATIONS ===================
     ------------------------ ATOM   14 ------------------------
     Tr[ns( 14)] (up, down, total) =   4.88472  4.36302  9.24774
     Atomic magnetic moment for atom  14 =   0.52170
     SPIN  1
     eigenvalues:
       0.955  0.968  0.985  0.985  0.990
     eigenvectors (columns):
      -0.000  1.000 -0.000 -0.000  0.000
      -0.000  0.000  0.344  0.939  0.000
      -0.000  0.000  0.939 -0.344  0.000
       1.000  0.000  0.000  0.000 -0.000
       0.000 -0.000 -0.000 -0.000  1.000
     occupation matrix ns (before diag.):
       0.968 -0.000 -0.000  0.000  0.000
      -0.000  0.985 -0.000  0.000  0.000
      -0.000 -0.000  0.985  0.000  0.000
       0.000  0.000  0.000  0.955 -0.000
       0.000  0.000  0.000 -0.000  0.990
     SPIN  2
     eigenvalues:
       0.476  0.946  0.978  0.978  0.984
     eigenvectors (columns):
      -0.000  1.000 -0.000 -0.000  0.000
      -0.000  0.000  0.400  0.916  0.000
      -0.000  0.000  0.916 -0.400  0.000
       1.000  0.000  0.000  0.000 -0.000
       0.000 -0.000 -0.000 -0.000  1.000
     occupation matrix ns (before diag.):
       0.946 -0.000 -0.000  0.000  0.000
      -0.000  0.978 -0.000  0.000  0.000
      -0.000 -0.000  0.978  0.000  0.000
       0.000  0.000  0.000  0.476 -0.000
       0.000  0.000  0.000 -0.000  0.984
     ------------------------ ATOM   15 ------------------------
     Tr[ns( 15)] (up, down, total) =   4.36304  4.88471  9.24775
     Atomic magnetic moment for atom  15 =  -0.52167
     SPIN  1
     eigenvalues:
       0.476  0.946  0.978  0.978  0.984
     eigenvectors (columns):
      -0.000  1.000 -0.000 -0.000  0.000
      -0.000  0.000  0.325  0.946  0.000
      -0.000  0.000  0.946 -0.325  0.000
       1.000  0.000  0.000  0.000 -0.000
       0.000 -0.000 -0.000 -0.000  1.000
     occupation matrix ns (before diag.):
       0.946 -0.000 -0.000  0.000  0.000
      -0.000  0.978 -0.000  0.000  0.000
      -0.000 -0.000  0.978  0.000  0.000
       0.000  0.000  0.000  0.476 -0.000
       0.000  0.000  0.000 -0.000  0.984
     SPIN  2
     eigenvalues:
       0.955  0.968  0.985  0.985  0.990
     eigenvectors (columns):
      -0.000  1.000 -0.000 -0.000  0.000
      -0.000  0.000  0.356  0.934  0.000
      -0.000  0.000  0.934 -0.356  0.000
       1.000  0.000  0.000  0.000 -0.000
       0.000 -0.000 -0.000 -0.000  1.000
     occupation matrix ns (before diag.):
       0.968 -0.000 -0.000  0.000  0.000
      -0.000  0.985 -0.000  0.000  0.000
      -0.000 -0.000  0.985  0.000  0.000
       0.000  0.000  0.000  0.955 -0.000
       0.000  0.000  0.000 -0.000  0.990
     ------------------------ ATOM   17 ------------------------
     Tr[ns( 17)] (up, down, total) =   4.36301  4.88471  9.24772
     Atomic magnetic moment for atom  17 =  -0.52169
     SPIN  1
     eigenvalues:
       0.476  0.946  0.978  0.978  0.984
     eigenvectors (columns):
      -0.000  1.000 -0.000 -0.000  0.000
      -0.000  0.000  1.000 -0.000  0.000
      -0.000  0.000  0.000  1.000  0.000
       1.000  0.000  0.000  0.000 -0.000
       0.000 -0.000 -0.000 -0.000  1.000
     occupation matrix ns (before diag.):
       0.946 -0.000 -0.000  0.000  0.000
      -0.000  0.978 -0.000  0.000  0.000
      -0.000 -0.000  0.978  0.000  0.000
       0.000  0.000  0.000  0.476 -0.000
       0.000  0.000  0.000 -0.000  0.984
     SPIN  2
     eigenvalues:
       0.955  0.968  0.985  0.985  0.990
     eigenvectors (columns):
       0.000  1.000 -0.000 -0.000  0.000
      -0.000  0.000  1.000 -0.000  0.000
      -0.000  0.000  0.000  1.000  0.000
       1.000 -0.000  0.000  0.000 -0.000
       0.000 -0.000 -0.000 -0.000  1.000
     occupation matrix ns (before diag.):
       0.968 -0.000 -0.000 -0.000  0.000
      -0.000  0.985 -0.000  0.000  0.000
      -0.000 -0.000  0.985  0.000  0.000
      -0.000  0.000  0.000  0.955 -0.000
       0.000  0.000  0.000 -0.000  0.990
     ------------------------ ATOM   18 ------------------------
     Tr[ns( 18)] (up, down, total) =   4.88471  4.36302  9.24774
     Atomic magnetic moment for atom  18 =   0.52169
     SPIN  1
     eigenvalues:
       0.955  0.968  0.985  0.985  0.990
     eigenvectors (columns):
       0.000  1.000 -0.000 -0.000  0.000
      -0.000  0.000  1.000 -0.000  0.000
      -0.000  0.000  0.000  1.000  0.000
       1.000 -0.000  0.000  0.000 -0.000
       0.000 -0.000 -0.000 -0.000  1.000
     occupation matrix ns (before diag.):
       0.968 -0.000 -0.000 -0.000  0.000
      -0.000  0.985 -0.000  0.000  0.000
      -0.000 -0.000  0.985  0.000  0.000
      -0.000  0.000  0.000  0.955 -0.000
       0.000  0.000  0.000 -0.000  0.990
     SPIN  2
     eigenvalues:
       0.476  0.946  0.978  0.978  0.984
     eigenvectors (columns):
      -0.000  1.000 -0.000 -0.000  0.000
      -0.000  0.000  0.000  1.000  0.000
      -0.000  0.000  1.000 -0.000  0.000
       1.000  0.000  0.000  0.000 -0.000
       0.000 -0.000 -0.000 -0.000  1.000
     occupation matrix ns (before diag.):
       0.946 -0.000 -0.000  0.000  0.000
      -0.000  0.978 -0.000  0.000  0.000
      -0.000 -0.000  0.978  0.000  0.000
       0.000  0.000  0.000  0.476 -0.000
       0.000  0.000  0.000 -0.000  0.984
     ------------------------ ATOM   20 ------------------------
     Tr[ns( 20)] (up, down, total) =   4.36301  4.88471  9.24772
     Atomic magnetic moment for atom  20 =  -0.52169
     SPIN  1
     eigenvalues:
       0.476  0.946  0.978  0.978  0.984
     eigenvectors (columns):
       0.000  1.000 -0.000 -0.000  0.000
      -0.000  0.000  0.000  1.000  0.000
      -0.000  0.000  1.000 -0.000  0.000
       1.000 -0.000  0.000  0.000 -0.000
       0.000 -0.000 -0.000 -0.000  1.000
     occupation matrix ns (before diag.):
       0.946 -0.000 -0.000 -0.000  0.000
      -0.000  0.978 -0.000  0.000  0.000
      -0.000 -0.000  0.978  0.000  0.000
      -0.000  0.000  0.000  0.476 -0.000
       0.000  0.000  0.000 -0.000  0.984
     SPIN  2
     eigenvalues:
       0.955  0.968  0.985  0.985  0.990
     eigenvectors (columns):
      -0.000  1.000 -0.000 -0.000  0.000
      -0.000  0.000  0.000  1.000  0.000
      -0.000  0.000  1.000 -0.000  0.000
       1.000  0.000  0.000  0.000 -0.000
       0.000 -0.000 -0.000 -0.000  1.000
     occupation matrix ns (before diag.):
       0.968 -0.000 -0.000  0.000  0.000
      -0.000  0.985 -0.000  0.000  0.000
      -0.000 -0.000  0.985  0.000  0.000
       0.000  0.000  0.000  0.955 -0.000
       0.000  0.000  0.000 -0.000  0.990
     ------------------------ ATOM   21 ------------------------
     Tr[ns( 21)] (up, down, total) =   4.88471  4.36302  9.24774
     Atomic magnetic moment for atom  21 =   0.52169
     SPIN  1
     eigenvalues:
       0.955  0.968  0.985  0.985  0.990
     eigenvectors (columns):
      -0.000  1.000 -0.000 -0.000  0.000
      -0.000  0.000  0.000  1.000  0.000
      -0.000  0.000  1.000 -0.000  0.000
       1.000  0.000  0.000  0.000 -0.000
       0.000 -0.000 -0.000 -0.000  1.000
     occupation matrix ns (before diag.):
       0.968 -0.000 -0.000  0.000  0.000
      -0.000  0.985 -0.000  0.000  0.000
      -0.000 -0.000  0.985  0.000  0.000
       0.000  0.000  0.000  0.955 -0.000
       0.000  0.000  0.000 -0.000  0.990
     SPIN  2
     eigenvalues:
       0.476  0.946  0.978  0.978  0.984
     eigenvectors (columns):
       0.000  1.000 -0.000 -0.000  0.000
      -0.000  0.000  1.000 -0.000  0.000
      -0.000  0.000  0.000  1.000  0.000
       1.000 -0.000  0.000  0.000 -0.000
       0.000 -0.000 -0.000 -0.000  1.000
     occupation matrix ns (before diag.):
       0.946 -0.000 -0.000 -0.000  0.000
      -0.000  0.978 -0.000  0.000  0.000
      -0.000 -0.000  0.978  0.000  0.000
      -0.000  0.000  0.000  0.476 -0.000
       0.000  0.000  0.000 -0.000  0.984
     ------------------------ ATOM   23 ------------------------
     Tr[ns( 23)] (up, down, total) =   4.88471  4.36303  9.24774
     Atomic magnetic moment for atom  23 =   0.52168
     SPIN  1
     eigenvalues:
       0.955  0.968  0.985  0.985  0.990
     eigenvectors (columns):
      -0.000  1.000 -0.000 -0.000  0.000
      -0.000  0.000  0.330  0.944  0.000
      -0.000  0.000  0.944 -0.330  0.000
       1.000  0.000  0.000  0.000 -0.000
       0.000 -0.000 -0.000 -0.000  1.000
     occupation matrix ns (before diag.):
       0.968 -0.000 -0.000  0.000  0.000
      -0.000  0.985 -0.000  0.000  0.000
      -0.000 -0.000  0.985  0.000  0.000
       0.000  0.000  0.000  0.955 -0.000
       0.000  0.000  0.000 -0.000  0.990
     SPIN  2
     eigenvalues:
       0.476  0.946  0.978  0.978  0.984
     eigenvectors (columns):
       0.000  1.000 -0.000 -0.000  0.000
      -0.000  0.000  0.292  0.956  0.000
      -0.000  0.000  0.956 -0.292  0.000
       1.000 -0.000  0.000  0.000 -0.000
       0.000 -0.000 -0.000 -0.000  1.000
     occupation matrix ns (before diag.):
       0.946 -0.000 -0.000  0.000  0.000
      -0.000  0.978 -0.000  0.000  0.000
      -0.000 -0.000  0.978  0.000  0.000
       0.000  0.000  0.000  0.476 -0.000
       0.000  0.000  0.000 -0.000  0.984
     ------------------------ ATOM   24 ------------------------
     Tr[ns( 24)] (up, down, total) =   4.36300  4.88470  9.24770
     Atomic magnetic moment for atom  24 =  -0.52170
     SPIN  1
     eigenvalues:
       0.476  0.946  0.978  0.978  0.984
     eigenvectors (columns):
      -0.000  1.000 -0.000 -0.000  0.000
      -0.000  0.000  0.341  0.940  0.000
      -0.000  0.000  0.940 -0.341  0.000
       1.000  0.000  0.000  0.000 -0.000
       0.000 -0.000 -0.000 -0.000  1.000
     occupation matrix ns (before diag.):
       0.946 -0.000 -0.000  0.000  0.000
      -0.000  0.978 -0.000  0.000  0.000
      -0.000 -0.000  0.978  0.000  0.000
       0.000  0.000  0.000  0.476 -0.000
       0.000  0.000  0.000 -0.000  0.984
     SPIN  2
     eigenvalues:
       0.955  0.968  0.985  0.985  0.990
     eigenvectors (columns):
      -0.000  1.000 -0.000 -0.000  0.000
      -0.000  0.000  0.343  0.939  0.000
      -0.000  0.000  0.939 -0.343  0.000
       1.000  0.000  0.000  0.000 -0.000
       0.000 -0.000 -0.000 -0.000  1.000
     occupation matrix ns (before diag.):
       0.968 -0.000 -0.000  0.000  0.000
      -0.000  0.985 -0.000  0.000  0.000
      -0.000 -0.000  0.985  0.000  0.000
       0.000  0.000  0.000  0.955 -0.000
       0.000  0.000  0.000 -0.000  0.990

     Number of occupied Hubbard levels =   73.9818

     negative rho (up, down):  3.778E-01 3.778E-01

     HUBBARD ENERGY =    0.3869  (Ry)

[...]
     8.0997   8.0997   8.0997   8.0997   8.2052   8.2052   8.2052   8.2052
     8.3553   8.3553   8.3553   8.3553   8.6297   8.6297   8.6297   8.6297
     8.7225   8.7225   8.7226   8.7226   8.8114   8.8114   8.8114   8.8114
     8.9959   8.9959   8.9959   8.9959   9.0031   9.0031   9.0031   9.0031
     9.0695   9.0695   9.0695   9.0695   9.1131   9.1131   9.1131   9.1131
     9.2021   9.2021   9.2021   9.2021   9.2868   9.2868   9.2868   9.2868
     9.5341   9.5341   9.5341   9.5341  10.3106  10.3106  10.3106  10.3106
    10.7470  10.7470  10.7470  10.7470  11.0178  11.0178  11.0178  11.0178
    11.4731  11.4731  11.4731  11.4731  13.5566  13.5566  13.5566  13.5566
    14.6963  14.6963  14.6963  14.6963  14.7425  14.7425  14.7425  14.7425
    14.9011  14.9011  14.9011  14.9011  16.1006  16.1006  16.1006  16.1006
    16.3306  16.3306  16.3306  16.3306  16.3860  16.3860  16.3860  16.3860
    16.8965  16.8965  16.8965  16.8965  17.0517  17.0517  17.0517  17.0517
    17.0933  17.0933  17.0933  17.0933  17.3479  17.3479  17.3479  17.3479
    17.4055  17.4055

     occupation numbers 
     1.0000   1.0000   1.0000   1.0000   1.0000   1.0000   1.0000   1.0000
     1.0000   1.0000   1.0000   1.0000   1.0000   1.0000   1.0000   1.0000
     1.0000   1.0000   1.0000   1.0000   1.0000   1.0000   1.0000   1.0000
     1.0000   1.0000   1.0000   1.0000   1.0000   1.0000   1.0000   1.0000
     1.0000   1.0000   1.0000   1.0000   1.0000   1.0000   1.0000   1.0000
     1.0000   1.0000   1.0000   1.0000   1.0000   1.0000   1.0000   1.0000
     1.0000   1.0000   1.0000   1.0000   1.0000   1.0000   1.0000   1.0000
     1.0000   1.0000   1.0000   1.0000   1.0000   1.0000   1.0000   1.0000
     1.0000   1.0000   1.0000   1.0000   1.0000   1.0000   1.0000   1.0000
     1.0000   1.0000   1.0000   1.0000   1.0000   1.0000   1.0000   1.0000
     1.0000   1.0000   1.0000   1.0000   1.0000   1.0000   1.0000   1.0000
     1.0000   1.0000   1.0000   1.0000   1.0000   1.0000   1.0000   1.0000
     1.0000   1.0000   1.0000   1.0000   1.0000   1.0000   1.0000   1.0000
     1.0000   1.0000   1.0000   1.0000   1.0000   1.0000   1.0000   1.0000
     1.0000   1.0000   1.0000   1.0000   1.0000   1.0000   1.0000   1.0000
     1.0000   1.0000   1.0000   1.0000   1.0000   1.0000   1.0000   1.0000
     1.0000   1.0000   1.0000   1.0000   1.0000   1.0000   1.0000   1.0000
     1.0000   1.0000   1.0000   1.0000   1.0000   1.0000   1.0000   1.0000
     1.0000   1.0000   1.0000   1.0000   1.0000   1.0000   1.0000   1.0000
     1.0000   1.0000   1.0000   1.0000   1.0000   1.0000   1.0000   1.0000
     1.0000   1.0000   1.0000   1.0000   1.0000   1.0000   1.0000   1.0000
     1.0000   1.0000   1.0000   1.0000   1.0000   1.0000   1.0000   1.0000
     1.0000   1.0000   1.0000   1.0000   1.0000   1.0000   1.0000   1.0000
     1.0000   1.0000   1.0000   1.0000   1.0000   1.0000   1.0000   1.0000
     1.0000   1.0000   1.0000   1.0000   1.0000   1.0000   1.0000   1.0000
     1.0000   1.0000   1.0000   1.0000   1.0000   1.0000   1.0000   1.0000
     1.0000   1.0000   1.0000   1.0000   1.0000   1.0000   1.0000   1.0000
     1.0000   1.0000   1.0000   1.0000   1.0000   1.0000   1.0000   1.0000
     1.0000   1.0000   1.0000   1.0000   1.0000   1.0000   1.0000   1.0000
     1.0000   1.0000   1.0000   1.0000   1.0000   1.0000   1.0000   1.0000
     1.0076   1.0076   1.0076   1.0076  -0.0331  -0.0331  -0.0332  -0.0332
    -0.0000  -0.0000  -0.0000  -0.0000  -0.0000  -0.0000  -0.0000  -0.0000
    -0.0000  -0.0000  -0.0000  -0.0000  -0.0000  -0.0000  -0.0000  -0.0000
    -0.0000  -0.0000  -0.0000  -0.0000  -0.0000  -0.0000  -0.0000  -0.0000
    -0.0000  -0.0000  -0.0000  -0.0000  -0.0000  -0.0000  -0.0000  -0.0000
    -0.0000  -0.0000  -0.0000  -0.0000  -0.0000  -0.0000  -0.0000  -0.0000
    -0.0000  -0.0000  -0.0000  -0.0000  -0.0000  -0.0000  -0.0000  -0.0000
    -0.0000  -0.0000

          k =-0.5000-0.5000 0.1639 ( 35324 PWs)   bands (ev):

  -100.5256-100.5256-100.5255-100.5255-100.2266-100.2266-100.2266-100.2266
  -100.0745-100.0745-100.0745-100.0745 -58.5533 -58.5533 -58.5533 -58.5533
   -58.5532 -58.5532 -58.5532 -58.5532 -58.2092 -58.2092 -58.2092 -58.2092
   -58.2092 -58.2092 -58.2092 -58.2092 -58.1364 -58.1364 -58.1364 -58.1364
   -58.0291 -58.0291 -58.0290 -58.0290 -57.8639 -57.8639 -57.8639 -57.8638
   -57.8133 -57.8133 -57.8133 -57.8133 -57.8133 -57.8133 -57.8133 -57.8133
   -30.1173 -30.1173 -30.1173 -30.1173 -15.1297 -15.1297 -15.1297 -15.1297
   -15.1215 -15.1215 -15.1215 -15.1215 -10.6517 -10.6517 -10.6517 -10.6517
   -10.6302 -10.6302 -10.6302 -10.6302 -10.5838 -10.5838 -10.5838 -10.5838
    -6.9290  -6.9290  -6.9290  -6.9290  -6.7100  -6.7100  -6.7100  -6.7100
    -6.4861  -6.4861  -6.4861  -6.4861  -6.2502  -6.2502  -6.2502  -6.2502
    -6.1750  -6.1750  -6.1750  -6.1750  -5.8420  -5.8420  -5.8420  -5.8420
    -0.5835  -0.5835  -0.5835  -0.5835  -0.5814  -0.5814  -0.5814  -0.5814
    -0.5644  -0.5644  -0.5644  -0.5644  -0.4417  -0.4417  -0.4417  -0.4417
    -0.0928  -0.0928  -0.0928  -0.0928  -0.0328  -0.0328  -0.0328  -0.0328
     4.3012   4.3012   4.3012   4.3012   4.7077   4.7077   4.7077   4.7077
     5.0440   5.0440   5.0440   5.0440   5.3515   5.3515   5.3515   5.3515
     5.6656   5.6656   5.6656   5.6656   5.7815   5.7815   5.7815   5.7815
     5.8265   5.8265   5.8265   5.8265   5.9954   5.9954   5.9954   5.9954
     6.3900   6.3900   6.3900   6.3900   6.7689   6.7689   6.7689   6.7689
     6.9772   6.9772   6.9772   6.9772   7.0371   7.0371   7.0371   7.0371
     7.2396   7.2396   7.2397   7.2397   7.5845   7.5845   7.5845   7.5845
     7.7024   7.7024   7.7024   7.7024   7.9997   7.9997   7.9997   7.9997
     8.1261   8.1261   8.1261   8.1261   8.1782   8.1782   8.1782   8.1782
     8.3080   8.3080   8.3080   8.3080   8.6513   8.6513   8.6513   8.6513
     8.7761   8.7761   8.7761   8.7761   8.8033   8.8033   8.8033   8.8033
     8.9841   8.9841   8.9841   8.9841   8.9857   8.9857   8.9857   8.9857
     9.0670   9.0670   9.0670   9.0670   9.1034   9.1034   9.1034   9.1034
     9.2265   9.2265   9.2265   9.2265   9.2597   9.2597   9.2598   9.2598
     9.4771   9.4771   9.4771   9.4771  10.3059  10.3059  10.3059  10.3059
    10.7449  10.7449  10.7449  10.7449  11.0219  11.0219  11.0219  11.0219
    11.4723  11.4723  11.4723  11.4723  13.5928  13.5928  13.5928  13.5928
    14.6790  14.6790  14.6790  14.6790  14.7182  14.7182  14.7182  14.7182
    14.9552  14.9552  14.9552  14.9552  16.0919  16.0919  16.0919  16.0919
    16.3546  16.3546  16.3546  16.3546  16.4150  16.4150  16.4150  16.4150
    16.6178  16.6178  16.6178  16.6178  16.9690  16.9690  16.9690  16.9690
    17.0473  17.0473  17.0473  17.0473  17.3256  17.3256  17.3259  17.3261
    17.4800  17.4801

     occupation numbers 
     1.0000   1.0000   1.0000   1.0000   1.0000   1.0000   1.0000   1.0000
     1.0000   1.0000   1.0000   1.0000   1.0000   1.0000   1.0000   1.0000
     1.0000   1.0000   1.0000   1.0000   1.0000   1.0000   1.0000   1.0000
     1.0000   1.0000   1.0000   1.0000   1.0000   1.0000   1.0000   1.0000
     1.0000   1.0000   1.0000   1.0000   1.0000   1.0000   1.0000   1.0000
     1.0000   1.0000   1.0000   1.0000   1.0000   1.0000   1.0000   1.0000
     1.0000   1.0000   1.0000   1.0000   1.0000   1.0000   1.0000   1.0000
     1.0000   1.0000   1.0000   1.0000   1.0000   1.0000   1.0000   1.0000
     1.0000   1.0000   1.0000   1.0000   1.0000   1.0000   1.0000   1.0000
     1.0000   1.0000   1.0000   1.0000   1.0000   1.0000   1.0000   1.0000
     1.0000   1.0000   1.0000   1.0000   1.0000   1.0000   1.0000   1.0000
     1.0000   1.0000   1.0000   1.0000   1.0000   1.0000   1.0000   1.0000
     1.0000   1.0000   1.0000   1.0000   1.0000   1.0000   1.0000   1.0000
     1.0000   1.0000   1.0000   1.0000   1.0000   1.0000   1.0000   1.0000
     1.0000   1.0000   1.0000   1.0000   1.0000   1.0000   1.0000   1.0000
     1.0000   1.0000   1.0000   1.0000   1.0000   1.0000   1.0000   1.0000
     1.0000   1.0000   1.0000   1.0000   1.0000   1.0000   1.0000   1.0000
     1.0000   1.0000   1.0000   1.0000   1.0000   1.0000   1.0000   1.0000
     1.0000   1.0000   1.0000   1.0000   1.0000   1.0000   1.0000   1.0000
     1.0000   1.0000   1.0000   1.0000   1.0000   1.0000   1.0000   1.0000
     1.0000   1.0000   1.0000   1.0000   1.0000   1.0000   1.0000   1.0000
     1.0000   1.0000   1.0000   1.0000   1.0000   1.0000   1.0000   1.0000
     1.0000   1.0000   1.0000   1.0000   1.0000   1.0000   1.0000   1.0000
     1.0000   1.0000   1.0000   1.0000   1.0000   1.0000   1.0000   1.0000
     1.0000   1.0000   1.0000   1.0000   1.0000   1.0000   1.0000   1.0000
     1.0000   1.0000   1.0000   1.0000   1.0000   1.0000   1.0000   1.0000
     1.0000   1.0000   1.0000   1.0000   1.0000   1.0000   1.0000   1.0000
     1.0000   1.0000   1.0000   1.0000   1.0000   1.0000   1.0000   1.0000
     1.0000   1.0000   1.0000   1.0000   1.0000   1.0000   1.0000   1.0000
     1.0000   1.0000   1.0000   1.0000   1.0000   1.0000   1.0000   1.0000
     1.0104   1.0104   1.0104   1.0104  -0.0343  -0.0343  -0.0343  -0.0343
    -0.0000  -0.0000  -0.0000  -0.0000  -0.0000  -0.0000  -0.0000  -0.0000
    -0.0000  -0.0000  -0.0000  -0.0000  -0.0000  -0.0000  -0.0000  -0.0000
    -0.0000  -0.0000  -0.0000  -0.0000  -0.0000  -0.0000  -0.0000  -0.0000
    -0.0000  -0.0000  -0.0000  -0.0000  -0.0000  -0.0000  -0.0000  -0.0000
    -0.0000  -0.0000  -0.0000  -0.0000  -0.0000  -0.0000  -0.0000  -0.0000
    -0.0000  -0.0000  -0.0000  -0.0000  -0.0000  -0.0000  -0.0000  -0.0000
    -0.0000  -0.0000

          k =-0.5000-0.5000-0.3279 ( 35256 PWs)   bands (ev):

  -100.5256-100.5256-100.5255-100.5255-100.2266-100.2266-100.2266-100.2266
  -100.0745-100.0745-100.0745-100.0745 -58.5533 -58.5533 -58.5533 -58.5533
   -58.5532 -58.5532 -58.5532 -58.5532 -58.2092 -58.2092 -58.2092 -58.2092
   -58.2092 -58.2092 -58.2092 -58.2092 -58.1364 -58.1364 -58.1364 -58.1364
   -58.0291 -58.0291 -58.0290 -58.0290 -57.8639 -57.8639 -57.8639 -57.8639
   -57.8133 -57.8133 -57.8133 -57.8133 -57.8133 -57.8133 -57.8133 -57.8133
   -30.1173 -30.1173 -30.1173 -30.1173 -15.1307 -15.1307 -15.1307 -15.1307
   -15.1205 -15.1205 -15.1205 -15.1205 -10.6517 -10.6517 -10.6517 -10.6517
   -10.6302 -10.6302 -10.6302 -10.6302 -10.5838 -10.5838 -10.5838 -10.5838
    -6.9278  -6.9278  -6.9278  -6.9278  -6.7128  -6.7128  -6.7128  -6.7128
    -6.4862  -6.4862  -6.4862  -6.4862  -6.2502  -6.2502  -6.2502  -6.2502
    -6.1703  -6.1703  -6.1703  -6.1703  -5.8451  -5.8451  -5.8451  -5.8451
    -0.5787  -0.5787  -0.5787  -0.5787  -0.5745  -0.5745  -0.5745  -0.5745
    -0.5713  -0.5713  -0.5713  -0.5713  -0.4472  -0.4472  -0.4472  -0.4472
    -0.0809  -0.0809  -0.0809  -0.0809  -0.0447  -0.0447  -0.0447  -0.0447
     4.3096   4.3096   4.3096   4.3096   4.6973   4.6973   4.6973   4.6973
     5.0440   5.0440   5.0440   5.0440   5.3515   5.3515   5.3515   5.3515
     5.6696   5.6696   5.6696   5.6696   5.7761   5.7761   5.7761   5.7761
     5.8327   5.8327   5.8327   5.8327   5.9958   5.9958   5.9958   5.9958
     6.3900   6.3900   6.3900   6.3900   6.8174   6.8174   6.8174   6.8174
     6.9612   6.9612   6.9612   6.9612   6.9766   6.9766   6.9766   6.9766
     7.1686   7.1686   7.1686   7.1686   7.5821   7.5821   7.5821   7.5821
     7.8519   7.8519   7.8519   7.8519   8.0516   8.0516   8.0516   8.0516
     8.1324   8.1324   8.1324   8.1324   8.1502   8.1502   8.1502   8.1502
     8.2470   8.2470   8.2470   8.2470   8.6692   8.6692   8.6693   8.6693
     8.7946   8.7946   8.7946   8.7946   8.8658   8.8658   8.8659   8.8659
     8.9642   8.9642   8.9642   8.9642   8.9745   8.9745   8.9745   8.9745
     9.0644   9.0644   9.0644   9.0644   9.0978   9.0978   9.0978   9.0978
     9.1875   9.1875   9.1875   9.1875   9.2454   9.2454   9.2454   9.2454
     9.4356   9.4356   9.4356   9.4356  10.3012  10.3012  10.3012  10.3012
    10.7429  10.7429  10.7429  10.7429  11.0260  11.0260  11.0260  11.0260
    11.4714  11.4714  11.4714  11.4714  13.6311  13.6311  13.6311  13.6311
    14.6140  14.6140  14.6140  14.6140  14.7407  14.7407  14.7408  14.7408
    15.0171  15.0171  15.0171  15.0171  16.0677  16.0677  16.0677  16.0677
    16.3701  16.3701  16.3701  16.3701  16.4939  16.4939  16.4939  16.4939
    16.5019  16.5019  16.5019  16.5019  16.7828  16.7828  16.7828  16.7828
    16.9084  16.9084  16.9084  16.9084  17.3396  17.3396  17.3398  17.3398
    17.5489  17.5489

     occupation numbers 
     1.0000   1.0000   1.0000   1.0000   1.0000   1.0000   1.0000   1.0000
     1.0000   1.0000   1.0000   1.0000   1.0000   1.0000   1.0000   1.0000
     1.0000   1.0000   1.0000   1.0000   1.0000   1.0000   1.0000   1.0000
     1.0000   1.0000   1.0000   1.0000   1.0000   1.0000   1.0000   1.0000
     1.0000   1.0000   1.0000   1.0000   1.0000   1.0000   1.0000   1.0000
     1.0000   1.0000   1.0000   1.0000   1.0000   1.0000   1.0000   1.0000
     1.0000   1.0000   1.0000   1.0000   1.0000   1.0000   1.0000   1.0000
     1.0000   1.0000   1.0000   1.0000   1.0000   1.0000   1.0000   1.0000
     1.0000   1.0000   1.0000   1.0000   1.0000   1.0000   1.0000   1.0000
     1.0000   1.0000   1.0000   1.0000   1.0000   1.0000   1.0000   1.0000
     1.0000   1.0000   1.0000   1.0000   1.0000   1.0000   1.0000   1.0000
     1.0000   1.0000   1.0000   1.0000   1.0000   1.0000   1.0000   1.0000
     1.0000   1.0000   1.0000   1.0000   1.0000   1.0000   1.0000   1.0000
     1.0000   1.0000   1.0000   1.0000   1.0000   1.0000   1.0000   1.0000
     1.0000   1.0000   1.0000   1.0000   1.0000   1.0000   1.0000   1.0000
     1.0000   1.0000   1.0000   1.0000   1.0000   1.0000   1.0000   1.0000
     1.0000   1.0000   1.0000   1.0000   1.0000   1.0000   1.0000   1.0000
     1.0000   1.0000   1.0000   1.0000   1.0000   1.0000   1.0000   1.0000
     1.0000   1.0000   1.0000   1.0000   1.0000   1.0000   1.0000   1.0000
     1.0000   1.0000   1.0000   1.0000   1.0000   1.0000   1.0000   1.0000
     1.0000   1.0000   1.0000   1.0000   1.0000   1.0000   1.0000   1.0000
     1.0000   1.0000   1.0000   1.0000   1.0000   1.0000   1.0000   1.0000
     1.0000   1.0000   1.0000   1.0000   1.0000   1.0000   1.0000   1.0000
     1.0000   1.0000   1.0000   1.0000   1.0000   1.0000   1.0000   1.0000
     1.0000   1.0000   1.0000   1.0000   1.0000   1.0000   1.0000   1.0000
     1.0000   1.0000   1.0000   1.0000   1.0000   1.0000   1.0000   1.0000
     1.0000   1.0000   1.0000   1.0000   1.0000   1.0000   1.0000   1.0000
     1.0000   1.0000   1.0000   1.0000   1.0000   1.0000   1.0000   1.0000
     1.0000   1.0000   1.0000   1.0000   1.0000   1.0000   1.0000   1.0000
     1.0000   1.0000   1.0000   1.0000   1.0000   1.0000   1.0000   1.0000
     1.0130   1.0130   1.0130   1.0130  -0.0350  -0.0350  -0.0350  -0.0350
    -0.0000  -0.0000  -0.0000  -0.0000  -0.0000  -0.0000  -0.0000  -0.0000
    -0.0000  -0.0000  -0.0000  -0.0000  -0.0000  -0.0000  -0.0000  -0.0000
    -0.0000  -0.0000  -0.0000  -0.0000  -0.0000  -0.0000  -0.0000  -0.0000
    -0.0000  -0.0000  -0.0000  -0.0000  -0.0000  -0.0000  -0.0000  -0.0000
    -0.0000  -0.0000  -0.0000  -0.0000  -0.0000  -0.0000  -0.0000  -0.0000
    -0.0000  -0.0000  -0.0000  -0.0000  -0.0000  -0.0000  -0.0000  -0.0000
    -0.0000  -0.0000

     the Fermi energy is    10.8666 ev

!    total energy              =   -6554.66270056 Ry
     estimated scf accuracy    <          3.9E-09 Ry
     smearing contrib. (-TS)   =       0.00280954 Ry
     internal energy E=F+TS    =   -6554.66551010 Ry

     The total energy is F=E-TS. E is the sum of the following terms:
     one-electron contribution =   -5519.49346749 Ry
     hartree contribution      =    3037.28340015 Ry
     xc contribution           =    -965.42632524 Ry
     ewald contribution        =   -3107.44375877 Ry
     Hubbard energy            =       0.41464126 Ry

     total magnetization       =     0.00 Bohr mag/cell
     absolute magnetization    =     2.16 Bohr mag/cell

     convergence has been achieved in  34 iterations

     Writing all to output data dir ./YBCO6/YBCO6.save/
 
     init_run     :    162.42s CPU    165.13s WALL (       1 calls)
     electrons    :   8949.39s CPU   9119.79s WALL (       1 calls)

     Called by init_run:
     wfcinit      :    157.89s CPU    160.02s WALL (       1 calls)
     wfcinit:atom :      0.64s CPU      0.90s WALL (      36 calls)
     wfcinit:wfcr :    100.86s CPU    101.91s WALL (      36 calls)
     potinit      :      0.13s CPU      0.13s WALL (       1 calls)
     hinit0       :      0.90s CPU      0.93s WALL (       1 calls)

     Called by electrons:
     c_bands      :   7581.99s CPU   7693.97s WALL (      34 calls)
     sum_band     :   1245.75s CPU   1280.11s WALL (      34 calls)
     v_of_rho     :      1.99s CPU      2.04s WALL (      35 calls)
     v_h          :      0.62s CPU      0.65s WALL (      35 calls)
     v_xc         :      1.37s CPU      1.39s WALL (      35 calls)
     newd         :    118.83s CPU    143.03s WALL (      35 calls)
     mix_rho      :      2.92s CPU      3.10s WALL (      34 calls)

     Called by c_bands:
     init_us_2    :     67.37s CPU     67.57s WALL (    2520 calls)
     init_us_2:cp :     67.35s CPU     67.56s WALL (    2520 calls)
     cegterg      :   7248.32s CPU   7358.48s WALL (    1224 calls)

     Called by sum_band:
     sum_band:wei :      0.35s CPU      0.35s WALL (      34 calls)
     sum_band:loo :    961.01s CPU    967.33s WALL (      34 calls)
     sum_band:buf :     11.07s CPU     11.07s WALL (    1224 calls)
     sum_band:ini :     33.03s CPU     33.04s WALL (    1224 calls)
     sum_band:cal :    383.00s CPU    384.18s WALL (    1224 calls)
     sum_band:bec :      1.48s CPU      1.49s WALL (    1224 calls)
     addusdens    :    246.59s CPU    272.29s WALL (      34 calls)
                                        0.00s GPU  (      34 calls)
     addusd:skk   :      1.05s CPU      1.46s WALL (     204 calls)
                                        0.00s GPU  (     204 calls)

     Called by *egterg:
     cdiaghg      :    353.04s CPU    368.06s WALL (    5319 calls)
     cegterg:over :    687.48s CPU    694.70s WALL (    4095 calls)
     cegterg:upda :    409.80s CPU    424.34s WALL (    4095 calls)
     cegterg:last :    995.78s CPU    999.43s WALL (    2306 calls)
     cdiaghg:chol :      7.13s CPU      7.65s WALL (    5319 calls)
     cdiaghg:inve :      3.75s CPU      4.19s WALL (    5319 calls)
     cdiaghg:para :     72.99s CPU     81.04s WALL (   10638 calls)
     h_psi        :   3684.05s CPU   3725.08s WALL (    5355 calls)
     s_psi        :    911.09s CPU    913.31s WALL (    5391 calls)
     g_psi        :     12.41s CPU     12.46s WALL (    4095 calls)

     Called by h_psi:
     h_psi:calbec :    879.85s CPU    883.00s WALL (    5355 calls)
     vloc_psi     :   1596.22s CPU   1614.38s WALL (    5355 calls)
     add_vuspsi   :    917.73s CPU    917.80s WALL (    5355 calls)
     vhpsi        :    267.63s CPU    272.43s WALL (    5355 calls)

     General routines
     calbec       :   1359.92s CPU   1369.11s WALL (   13194 calls)
     fft          :      3.20s CPU      3.49s WALL (     379 calls)
     ffts         :      0.18s CPU      0.20s WALL (     138 calls)
     fftw         :   1051.84s CPU   1064.02s WALL ( 1985618 calls)
     interpolate  :      0.78s CPU      0.87s WALL (      70 calls)
     davcio       :      0.03s CPU      0.28s WALL (      36 calls)
 
     Parallel routines

     Hubbard U routines
     new_ns       :     33.14s CPU     33.32s WALL (      34 calls)
     vhpsi        :    267.63s CPU    272.43s WALL (    5355 calls)
 
     PWSCF        :      2h31m CPU      2h34m WALL

 
   This run was terminated on:  13:37:34   2Jan2024            

=------------------------------------------------------------------------------=
   JOB DONE.
=------------------------------------------------------------------------------=
