
     Program PWSCF v.7.2 starts on 24Dec2023 at 19:16: 3 

     This program is part of the open-source Quantum ESPRESSO suite
     for quantum simulation of materials; please cite
         "P. Giannozzi et al., J. Phys.:Condens. Matter 21 395502 (2009);
         "P. Giannozzi et al., J. Phys.:Condens. Matter 29 465901 (2017);
         "P. Giannozzi et al., J. Chem. Phys. 152 154105 (2020);
          URL http://www.quantum-espresso.org", 
     in publications or presentations arising from this work. More details at
     http://www.quantum-espresso.org/quote

     Parallel version (MPI), running on     4 processors

     MPI processes distributed on     1 nodes
     14884 MiB available memory on the printing compute node when the environment starts
 
     Waiting for input...
     Reading input from standard input

     Current dimensions of program PWSCF are:
     Max number of different atomic species (ntypx) = 10
     Max number of k-points (npk) =  40000
     Max angular momentum in pseudopotentials (lmaxx) =  4

     Fixed quantization axis for GGA:     0.000000    0.000000    1.000000
     Found identity + (  0.5000  0.5000  0.0000) symmetry
     This is a supercell, fractional translations are disabled
 
     R & G space division:  proc/nbgrp/npool/nimage =       4
     Subspace diagonalization in iterative solution of the eigenvalue problem:
     one sub-group per band group will be used
     custom distributed-memory algorithm (size of sub-group:  2*  2 procs)

 
     Parallelization info
     --------------------
     sticks:   dense  smooth     PW     G-vecs:    dense   smooth      PW
     Min        3100    1555    391               405588   143407   17945
     Max        3101    1556    392               405599   143416   17950
     Sum       12401    6221   1565              1622363   573639   71785
 
     Using Slab Decomposition
 


     bravais-lattice index     =            6
     lattice parameter (alat)  =      14.7368  a.u.
     unit-cell volume          =    4973.6681 (a.u.)^3
     number of atoms/cell      =           48
     number of atomic types    =            6
     number of electrons       =       496.00
     number of Kohn-Sham states=          596
     kinetic-energy cutoff     =      90.0000  Ry
     charge density cutoff     =     720.0000  Ry
     scf convergence threshold =      1.0E-08
     mixing beta               =       0.1000
     number of iterations used =            8  plain     mixing
     energy convergence thresh.=      1.0E-04
     force convergence thresh. =      1.0E-03
     press convergence thresh. =      5.0E-01
     Exchange-correlation= SLA  PW   PBE  PBE
                           (   1   4   3   4   0   0   0)
     nstep                     =           50

     Noncollinear calculation without spin-orbit

     Hubbard projectors: ortho-atomic
     Hubbard parameters of DFT+U (Liechtenstein formulation) in eV:
     U(Cu1-3d) =  2.5000
     U(Cu2-3d) =  2.5000

     Internal variables: lda_plus_u = T, lda_plus_u_kind = 1

     celldm(1)=  14.736798  celldm(2)=   0.000000  celldm(3)=   1.554059
     celldm(4)=   0.000000  celldm(5)=   0.000000  celldm(6)=   0.000000

     crystal axes: (cart. coord. in units of alat)
               a(1) = (   1.000000   0.000000   0.000000 )  
               a(2) = (   0.000000   1.000000   0.000000 )  
               a(3) = (   0.000000   0.000000   1.554059 )  

     reciprocal axes: (cart. coord. in units 2 pi/alat)
               b(1) = (  1.000000  0.000000  0.000000 )  
               b(2) = (  0.000000  1.000000  0.000000 )  
               b(3) = (  0.000000  0.000000  0.643476 )  


     PseudoPot. # 1 for Y  read from file:
     ~/q-e/pseudo/all_pbe_UPF_v1.5/y_pbe_v1.4.uspp.F.UPF
     MD5 check sum: Not computed, couldn't open file
     Pseudo is Ultrasoft + core correction, Zval = 11.0
     Generated by new atomic code, or converted to UPF format
     Using radial grid of  885 points,  6 beta functions with: 
                l(1) =   0
                l(2) =   0
                l(3) =   1
                l(4) =   1
                l(5) =   2
                l(6) =   2
     Q(r) pseudized with  8 coefficients,  rinner =    1.200   1.200   1.200
                                                       1.200   1.200

     PseudoPot. # 2 for Ba read from file:
     ~/q-e/pseudo/all_pbe_UPF_v1.5/ba_pbe_v1.uspp.F.UPF
     MD5 check sum: Not computed, couldn't open file
     Pseudo is Ultrasoft + core correction, Zval = 10.0
     Generated by new atomic code, or converted to UPF format
     Using radial grid of  907 points,  7 beta functions with: 
                l(1) =   0
                l(2) =   0
                l(3) =   1
                l(4) =   1
                l(5) =   2
                l(6) =   2
                l(7) =   3
     Q(r) pseudized with  6 coefficients,  rinner =    1.700   1.700   1.700
                                                       1.700   1.700   1.700
                                                       1.700

     PseudoPot. # 3 for Cu read from file:
     ~/q-e/pseudo/all_pbe_UPF_v1.5/cu_pbe_v1.2.uspp.F.UPF
     MD5 check sum: Not computed, couldn't open file
     Pseudo is Ultrasoft + core correction, Zval = 19.0
     Generated by new atomic code, or converted to UPF format
     Using radial grid of  867 points,  6 beta functions with: 
                l(1) =   0
                l(2) =   0
                l(3) =   1
                l(4) =   1
                l(5) =   2
                l(6) =   2
     Q(r) pseudized with  8 coefficients,  rinner =    1.150   1.150   1.150
                                                       1.150   1.150

     PseudoPot. # 4 for Cu read from file:
     ~/q-e/pseudo/all_pbe_UPF_v1.5/cu_pbe_v1.2.uspp.F.UPF
     MD5 check sum: Not computed, couldn't open file
     Pseudo is Ultrasoft + core correction, Zval = 19.0
     Generated by new atomic code, or converted to UPF format
     Using radial grid of  867 points,  6 beta functions with: 
                l(1) =   0
                l(2) =   0
                l(3) =   1
                l(4) =   1
                l(5) =   2
                l(6) =   2
     Q(r) pseudized with  8 coefficients,  rinner =    1.150   1.150   1.150
                                                       1.150   1.150

     PseudoPot. # 5 for Cu read from file:
     ~/q-e/pseudo/all_pbe_UPF_v1.5/cu_pbe_v1.2.uspp.F.UPF
     MD5 check sum: Not computed, couldn't open file
     Pseudo is Ultrasoft + core correction, Zval = 19.0
     Generated by new atomic code, or converted to UPF format
     Using radial grid of  867 points,  6 beta functions with: 
                l(1) =   0
                l(2) =   0
                l(3) =   1
                l(4) =   1
                l(5) =   2
                l(6) =   2
     Q(r) pseudized with  8 coefficients,  rinner =    1.150   1.150   1.150
                                                       1.150   1.150

     PseudoPot. # 6 for O  read from file:
     ~/q-e/pseudo/all_pbe_UPF_v1.5/o_pbe_v1.2.uspp.F.UPF
     MD5 check sum: Not computed, couldn't open file
     Pseudo is Ultrasoft + core correction, Zval =  6.0
     Generated by new atomic code, or converted to UPF format
     Using radial grid of  737 points,  5 beta functions with: 
                l(1) =   0
                l(2) =   0
                l(3) =   1
                l(4) =   1
                l(5) =   2
     Q(r) pseudized with  8 coefficients,  rinner =    0.900   0.900   0.900
                                                       0.900   0.900

     atomic species   valence    mass     pseudopotential
     Y                11.00    88.90584     Y ( 1.00)
     Ba               10.00   137.32700     Ba( 1.00)
     Cu               19.00    63.54600     Cu( 1.00)
     Cu1              19.00    63.54600     Cu( 1.00)
     Cu2              19.00    63.54600     Cu( 1.00)
     O                 6.00    15.99900     O ( 1.00)

      4 Sym. Ops. (no inversion) found


                                    s                        frac. trans.

      isym =  1     identity                                     

 Time Reversal            0
 cryst.   s( 1) = (     1          0          0      )
                  (     0          1          0      )
                  (     0          0          1      )

 cart.    s( 1) = (  1.0000000  0.0000000  0.0000000 )
                  (  0.0000000  1.0000000  0.0000000 )
                  (  0.0000000  0.0000000  1.0000000 )


      isym =  2     180 deg rotation - cart. axis [0,0,1]        

 Time Reversal            0
 cryst.   s( 2) = (    -1          0          0      )
                  (     0         -1          0      )
                  (     0          0          1      )

 cart.    s( 2) = ( -1.0000000  0.0000000  0.0000000 )
                  (  0.0000000 -1.0000000  0.0000000 )
                  (  0.0000000  0.0000000  1.0000000 )


      isym =  3     inv. 180 deg rotation - cart. axis [0,1,0]   

 Time Reversal            1
 cryst.   s( 3) = (     1          0          0      )
                  (     0         -1          0      )
                  (     0          0          1      )

 cart.    s( 3) = (  1.0000000  0.0000000  0.0000000 )
                  (  0.0000000 -1.0000000  0.0000000 )
                  (  0.0000000  0.0000000  1.0000000 )


      isym =  4     inv. 180 deg rotation - cart. axis [1,0,0]   

 Time Reversal            1
 cryst.   s( 4) = (    -1          0          0      )
                  (     0          1          0      )
                  (     0          0          1      )

 cart.    s( 4) = ( -1.0000000  0.0000000  0.0000000 )
                  (  0.0000000  1.0000000  0.0000000 )
                  (  0.0000000  0.0000000  1.0000000 )


     the magnetic double point group is C_2v (mm2)  [C_2  (2)   ]
     using the double point group C_2  (2)   
     there are  4 classes and  2 irreducible representations
     the character table:

       E     -E    C2    -C2  
                              
G_3    1.00 -1.00  0.00  0.00
G_4    1.00 -1.00  0.00  0.00

     imaginary part

       E     -E    C2    -C2  
                              
G_3    0.00  0.00  1.00 -1.00
G_4    0.00  0.00 -1.00  1.00

     the symmetry operations in each class and the name of the first element:

     E             1
          identity                                               
     -E           -1
          identity E                                             
     C2            2
          180 deg rotation - cart. axis [0,0,1]                  
     -C2          -2
          180 deg rotation - cart. axis [0,0,1] E                

   Cartesian axes

     site n.     atom                  positions (alat units)
         1        Y      tau(   1) = (   0.2500001   0.2500001   0.7770293  )
         2        Y      tau(   2) = (   0.2500001   0.7499999   0.7770293  )
         3        Y      tau(   3) = (   0.7499999   0.2500001   0.7770293  )
         4        Y      tau(   4) = (   0.7499999   0.7499999   0.7770293  )
         5        Ba     tau(   5) = (   0.2499999   0.2499998   0.3206040  )
         6        Ba     tau(   6) = (   0.2499999   0.2499999   1.2334547  )
         7        Ba     tau(   7) = (   0.2499999   0.7500002   0.3206040  )
         8        Ba     tau(   8) = (   0.2499999   0.7500001   1.2334547  )
         9        Ba     tau(   9) = (   0.7500001   0.2499998   0.3206040  )
        10        Ba     tau(  10) = (   0.7500001   0.2499999   1.2334547  )
        11        Ba     tau(  11) = (   0.7500001   0.7500002   0.3206040  )
        12        Ba     tau(  12) = (   0.7500001   0.7500001   1.2334547  )
        13        Cu     tau(  13) = (   0.0000000   0.0000000   0.0000008  )
        14        Cu1    tau(  14) = (   0.0000000   0.0000000   0.5812871  )
        15        Cu2    tau(  15) = (   0.0000000   0.0000000   0.9727706  )
        16        Cu     tau(  16) = (   0.0000000   0.5000000   0.0000009  )
        17        Cu2    tau(  17) = (   0.0000000   0.5000000   0.5812869  )
        18        Cu1    tau(  18) = (   0.0000000   0.5000000   0.9727709  )
        19        Cu     tau(  19) = (   0.5000000   0.0000000   0.0000008  )
        20        Cu2    tau(  20) = (   0.5000000   0.0000000   0.5812869  )
        21        Cu1    tau(  21) = (   0.5000000   0.0000000   0.9727709  )
        22        Cu     tau(  22) = (   0.5000000   0.5000000   0.0000008  )
        23        Cu1    tau(  23) = (   0.5000000   0.5000000   0.5812866  )
        24        Cu2    tau(  24) = (   0.5000000   0.5000000   0.9727712  )
        25        O      tau(  25) = (   0.0000000   0.0000000   0.2279666  )
        26        O      tau(  26) = (   0.0000000   0.0000000   1.3260931  )
        27        O      tau(  27) = (   0.5000000   0.0000000   0.2279666  )
        28        O      tau(  28) = (   0.5000000   0.0000000   1.3260930  )
        29        O      tau(  29) = (   0.0000000   0.5000000   0.2279666  )
        30        O      tau(  30) = (   0.0000000   0.5000000   1.3260932  )
        31        O      tau(  31) = (   0.5000000   0.5000000   0.2279666  )
        32        O      tau(  32) = (   0.5000000   0.5000000   1.3260931  )
        33        O      tau(  33) = (   0.2499994   0.0000000   0.5917038  )
        34        O      tau(  34) = (   0.2499994   0.0000000   0.9623545  )
        35        O      tau(  35) = (   0.2499994   0.5000000   0.5917038  )
        36        O      tau(  36) = (   0.2499994   0.5000000   0.9623545  )
        37        O      tau(  37) = (   0.7500006   0.0000000   0.5917038  )
        38        O      tau(  38) = (   0.7500006   0.0000000   0.9623545  )
        39        O      tau(  39) = (   0.7500006   0.5000000   0.5917038  )
        40        O      tau(  40) = (   0.7500006   0.5000000   0.9623545  )
        41        O      tau(  41) = (   0.0000000   0.2499994   0.5917488  )
        42        O      tau(  42) = (   0.0000000   0.2499994   0.9623095  )
        43        O      tau(  43) = (   0.5000000   0.2499994   0.5917488  )
        44        O      tau(  44) = (   0.5000000   0.2499994   0.9623095  )
        45        O      tau(  45) = (   0.0000000   0.7500006   0.5917488  )
        46        O      tau(  46) = (   0.0000000   0.7500006   0.9623095  )
        47        O      tau(  47) = (   0.5000000   0.7500006   0.5917488  )
        48        O      tau(  48) = (   0.5000000   0.7500006   0.9623095  )

   Crystallographic axes

     site n.     atom                  positions (cryst. coord.)
         1        Y      tau(   1) = (  0.2500001  0.2500001  0.5000000  )
         2        Y      tau(   2) = (  0.2500001  0.7499999  0.5000000  )
         3        Y      tau(   3) = (  0.7499999  0.2500001  0.5000000  )
         4        Y      tau(   4) = (  0.7499999  0.7499999  0.5000000  )
         5        Ba     tau(   5) = (  0.2499999  0.2499998  0.2063011  )
         6        Ba     tau(   6) = (  0.2499999  0.2499999  0.7936989  )
         7        Ba     tau(   7) = (  0.2499999  0.7500002  0.2063011  )
         8        Ba     tau(   8) = (  0.2499999  0.7500001  0.7936989  )
         9        Ba     tau(   9) = (  0.7500001  0.2499998  0.2063011  )
        10        Ba     tau(  10) = (  0.7500001  0.2499999  0.7936989  )
        11        Ba     tau(  11) = (  0.7500001  0.7500002  0.2063011  )
        12        Ba     tau(  12) = (  0.7500001  0.7500001  0.7936989  )
        13        Cu     tau(  13) = (  0.0000000  0.0000000  0.0000005  )
        14        Cu1    tau(  14) = (  0.0000000  0.0000000  0.3740445  )
        15        Cu2    tau(  15) = (  0.0000000  0.0000000  0.6259549  )
        16        Cu     tau(  16) = (  0.0000000  0.5000000  0.0000005  )
        17        Cu2    tau(  17) = (  0.0000000  0.5000000  0.3740444  )
        18        Cu1    tau(  18) = (  0.0000000  0.5000000  0.6259550  )
        19        Cu     tau(  19) = (  0.5000000  0.0000000  0.0000005  )
        20        Cu2    tau(  20) = (  0.5000000  0.0000000  0.3740444  )
        21        Cu1    tau(  21) = (  0.5000000  0.0000000  0.6259550  )
        22        Cu     tau(  22) = (  0.5000000  0.5000000  0.0000005  )
        23        Cu1    tau(  23) = (  0.5000000  0.5000000  0.3740442  )
        24        Cu2    tau(  24) = (  0.5000000  0.5000000  0.6259552  )
        25        O      tau(  25) = (  0.0000000  0.0000000  0.1466911  )
        26        O      tau(  26) = (  0.0000000  0.0000000  0.8533095  )
        27        O      tau(  27) = (  0.5000000  0.0000000  0.1466911  )
        28        O      tau(  28) = (  0.5000000  0.0000000  0.8533095  )
        29        O      tau(  29) = (  0.0000000  0.5000000  0.1466911  )
        30        O      tau(  30) = (  0.0000000  0.5000000  0.8533096  )
        31        O      tau(  31) = (  0.5000000  0.5000000  0.1466911  )
        32        O      tau(  32) = (  0.5000000  0.5000000  0.8533095  )
        33        O      tau(  33) = (  0.2499994  0.0000000  0.3807474  )
        34        O      tau(  34) = (  0.2499994  0.0000000  0.6192523  )
        35        O      tau(  35) = (  0.2499994  0.5000000  0.3807474  )
        36        O      tau(  36) = (  0.2499994  0.5000000  0.6192523  )
        37        O      tau(  37) = (  0.7500006  0.0000000  0.3807474  )
        38        O      tau(  38) = (  0.7500006  0.0000000  0.6192523  )
        39        O      tau(  39) = (  0.7500006  0.5000000  0.3807474  )
        40        O      tau(  40) = (  0.7500006  0.5000000  0.6192523  )
        41        O      tau(  41) = (  0.0000000  0.2499994  0.3807763  )
        42        O      tau(  42) = (  0.0000000  0.2499994  0.6192234  )
        43        O      tau(  43) = (  0.5000000  0.2499994  0.3807763  )
        44        O      tau(  44) = (  0.5000000  0.2499994  0.6192234  )
        45        O      tau(  45) = (  0.0000000  0.7500006  0.3807763  )
        46        O      tau(  46) = (  0.0000000  0.7500006  0.6192234  )
        47        O      tau(  47) = (  0.5000000  0.7500006  0.3807763  )
        48        O      tau(  48) = (  0.5000000  0.7500006  0.6192234  )

     number of k points=     1  Methfessel-Paxton smearing, width (Ry)=  0.0300
                       cart. coord. in units 2pi/alat
        k(    1) = (   0.0000000   0.0000000   0.0000000), wk =   1.0000000

                       cryst. coord.
        k(    1) = (   0.0000000   0.0000000   0.0000000), wk =   1.0000000

     Dense  grid:  1622363 G-vectors     FFT dimensions: ( 125, 125, 200)

     Smooth grid:   573639 G-vectors     FFT dimensions: (  90,  90, 144)

     Dynamical RAM for                 wfc:     326.08 MB

     Dynamical RAM for     wfc (w. buffer):     326.08 MB

     Dynamical RAM for             U proj.:      43.77 MB

     Dynamical RAM for  U proj. (w. buff.):      43.77 MB

     Dynamical RAM for           str. fact:      37.13 MB

     Dynamical RAM for           local pot:       0.00 MB

     Dynamical RAM for          nlocal pot:     218.85 MB

     Dynamical RAM for                qrad:      48.22 MB

     Dynamical RAM for          rho,v,vnew:     145.79 MB

     Dynamical RAM for               rhoin:      48.60 MB

     Dynamical RAM for            rho*nmix:     396.09 MB

     Dynamical RAM for           G-vectors:      24.30 MB

     Dynamical RAM for          h,s,v(r/c):      16.26 MB

     Dynamical RAM for          <psi|beta>:      14.55 MB

     Dynamical RAM for                 psi:     652.17 MB

     Dynamical RAM for                hpsi:     652.17 MB

     Dynamical RAM for                spsi:     652.17 MB

     Dynamical RAM for      wfcinit/wfcrot:     684.92 MB

     Dynamical RAM for           addusdens:    2345.61 MB

     Dynamical RAM for          addusforce:    2624.83 MB

     Dynamical RAM for         addusstress:    2373.46 MB

     Estimated static dynamical RAM per process >     983.75 MB

     Estimated max dynamical RAM per process >       3.91 GB

     Estimated total dynamical RAM >      15.64 GB
     Generating pointlists ...
     new r_m :   0.1284 (alat units)  1.8916 (a.u.) for type    1
     new r_m :   0.1508 (alat units)  2.2218 (a.u.) for type    2
     new r_m :   0.0940 (alat units)  1.3858 (a.u.) for type    3
     new r_m :   0.1032 (alat units)  1.5210 (a.u.) for type    4
     new r_m :   0.1032 (alat units)  1.5210 (a.u.) for type    5
     new r_m :   0.0940 (alat units)  1.3858 (a.u.) for type    6

     Initial potential from superposition of free atoms

     starting charge     483.8621, renormalised to     496.0000

     negative rho (up, down):  7.746E-01 0.000E+00
 --- in v_hubbard ---
Hub. E (dc, noflip, flip, total)   41.1592  42.0412   0.0000   0.8820
 -------

     STARTING HUBBARD OCCUPATIONS:

     ================= HUBBARD OCCUPATIONS ================
     ------------------------ ATOM   14 ------------------------
     Tr[ns( 14)] (up, down, total) =   5.00000  3.00000  8.00000
     eigenvalues:
       0.600  0.600  0.600  0.600  0.600  1.000  1.000  1.000  1.000  1.000
     eigenvectors (columns):
       0.000  0.000  0.000  0.000  0.000  1.000  0.000  0.000  0.000  0.000
       0.000  0.000  0.000  0.000  0.000  0.000  1.000  0.000  0.000  0.000
       0.000  0.000  0.000  0.000  0.000  0.000  0.000  1.000  0.000  0.000
       0.000  0.000  0.000  0.000  0.000  0.000  0.000  0.000  1.000  0.000
       0.000  0.000  0.000  0.000  0.000  0.000  0.000  0.000  0.000  1.000
       1.000  0.000  0.000  0.000  0.000  0.000  0.000  0.000  0.000  0.000
       0.000  1.000  0.000  0.000  0.000  0.000  0.000  0.000  0.000  0.000
       0.000  0.000  1.000  0.000  0.000  0.000  0.000  0.000  0.000  0.000
       0.000  0.000  0.000  1.000  0.000  0.000  0.000  0.000  0.000  0.000
       0.000  0.000  0.000  0.000  1.000  0.000  0.000  0.000  0.000  0.000
     occupations, | n_(i1, i2)^(sigma1, sigma2) |:
       1.000  0.000  0.000  0.000  0.000  0.000  0.000  0.000  0.000  0.000
       0.000  1.000  0.000  0.000  0.000  0.000  0.000  0.000  0.000  0.000
       0.000  0.000  1.000  0.000  0.000  0.000  0.000  0.000  0.000  0.000
       0.000  0.000  0.000  1.000  0.000  0.000  0.000  0.000  0.000  0.000
       0.000  0.000  0.000  0.000  1.000  0.000  0.000  0.000  0.000  0.000
       0.000  0.000  0.000  0.000  0.000  0.600  0.000  0.000  0.000  0.000
       0.000  0.000  0.000  0.000  0.000  0.000  0.600  0.000  0.000  0.000
       0.000  0.000  0.000  0.000  0.000  0.000  0.000  0.600  0.000  0.000
       0.000  0.000  0.000  0.000  0.000  0.000  0.000  0.000  0.600  0.000
       0.000  0.000  0.000  0.000  0.000  0.000  0.000  0.000  0.000  0.600
     Atomic magnetic moment mx, my, mz =     0.000000    0.000000    2.000000
     ------------------------ ATOM   15 ------------------------
     Tr[ns( 15)] (up, down, total) =   3.00000  5.00000  8.00000
     eigenvalues:
       0.600  0.600  0.600  0.600  0.600  1.000  1.000  1.000  1.000  1.000
     eigenvectors (columns):
       1.000  0.000  0.000  0.000  0.000  0.000  0.000  0.000  0.000  0.000
       0.000  1.000  0.000  0.000  0.000  0.000  0.000  0.000  0.000  0.000
       0.000  0.000  1.000  0.000  0.000  0.000  0.000  0.000  0.000  0.000
       0.000  0.000  0.000  1.000  0.000  0.000  0.000  0.000  0.000  0.000
       0.000  0.000  0.000  0.000  1.000  0.000  0.000  0.000  0.000  0.000
       0.000  0.000  0.000  0.000  0.000  1.000  0.000  0.000  0.000  0.000
       0.000  0.000  0.000  0.000  0.000  0.000  1.000  0.000  0.000  0.000
       0.000  0.000  0.000  0.000  0.000  0.000  0.000  1.000  0.000  0.000
       0.000  0.000  0.000  0.000  0.000  0.000  0.000  0.000  1.000  0.000
       0.000  0.000  0.000  0.000  0.000  0.000  0.000  0.000  0.000  1.000
     occupations, | n_(i1, i2)^(sigma1, sigma2) |:
       0.600  0.000  0.000  0.000  0.000  0.000  0.000  0.000  0.000  0.000
       0.000  0.600  0.000  0.000  0.000  0.000  0.000  0.000  0.000  0.000
       0.000  0.000  0.600  0.000  0.000  0.000  0.000  0.000  0.000  0.000
       0.000  0.000  0.000  0.600  0.000  0.000  0.000  0.000  0.000  0.000
       0.000  0.000  0.000  0.000  0.600  0.000  0.000  0.000  0.000  0.000
       0.000  0.000  0.000  0.000  0.000  1.000  0.000  0.000  0.000  0.000
       0.000  0.000  0.000  0.000  0.000  0.000  1.000  0.000  0.000  0.000
       0.000  0.000  0.000  0.000  0.000  0.000  0.000  1.000  0.000  0.000
       0.000  0.000  0.000  0.000  0.000  0.000  0.000  0.000  1.000  0.000
       0.000  0.000  0.000  0.000  0.000  0.000  0.000  0.000  0.000  1.000
     Atomic magnetic moment mx, my, mz =     0.000000    0.000000   -2.000000
     ------------------------ ATOM   17 ------------------------
     Tr[ns( 17)] (up, down, total) =   3.00000  5.00000  8.00000
     eigenvalues:
       0.600  0.600  0.600  0.600  0.600  1.000  1.000  1.000  1.000  1.000
     eigenvectors (columns):
       1.000  0.000  0.000  0.000  0.000  0.000  0.000  0.000  0.000  0.000
       0.000  1.000  0.000  0.000  0.000  0.000  0.000  0.000  0.000  0.000
       0.000  0.000  1.000  0.000  0.000  0.000  0.000  0.000  0.000  0.000
       0.000  0.000  0.000  1.000  0.000  0.000  0.000  0.000  0.000  0.000
       0.000  0.000  0.000  0.000  1.000  0.000  0.000  0.000  0.000  0.000
       0.000  0.000  0.000  0.000  0.000  1.000  0.000  0.000  0.000  0.000
       0.000  0.000  0.000  0.000  0.000  0.000  1.000  0.000  0.000  0.000
       0.000  0.000  0.000  0.000  0.000  0.000  0.000  1.000  0.000  0.000
       0.000  0.000  0.000  0.000  0.000  0.000  0.000  0.000  1.000  0.000
       0.000  0.000  0.000  0.000  0.000  0.000  0.000  0.000  0.000  1.000
     occupations, | n_(i1, i2)^(sigma1, sigma2) |:
       0.600  0.000  0.000  0.000  0.000  0.000  0.000  0.000  0.000  0.000
       0.000  0.600  0.000  0.000  0.000  0.000  0.000  0.000  0.000  0.000
       0.000  0.000  0.600  0.000  0.000  0.000  0.000  0.000  0.000  0.000
       0.000  0.000  0.000  0.600  0.000  0.000  0.000  0.000  0.000  0.000
       0.000  0.000  0.000  0.000  0.600  0.000  0.000  0.000  0.000  0.000
       0.000  0.000  0.000  0.000  0.000  1.000  0.000  0.000  0.000  0.000
       0.000  0.000  0.000  0.000  0.000  0.000  1.000  0.000  0.000  0.000
       0.000  0.000  0.000  0.000  0.000  0.000  0.000  1.000  0.000  0.000
       0.000  0.000  0.000  0.000  0.000  0.000  0.000  0.000  1.000  0.000
       0.000  0.000  0.000  0.000  0.000  0.000  0.000  0.000  0.000  1.000
     Atomic magnetic moment mx, my, mz =     0.000000    0.000000   -2.000000
     ------------------------ ATOM   18 ------------------------
     Tr[ns( 18)] (up, down, total) =   5.00000  3.00000  8.00000
     eigenvalues:
       0.600  0.600  0.600  0.600  0.600  1.000  1.000  1.000  1.000  1.000
     eigenvectors (columns):
       0.000  0.000  0.000  0.000  0.000  1.000  0.000  0.000  0.000  0.000
       0.000  0.000  0.000  0.000  0.000  0.000  1.000  0.000  0.000  0.000
       0.000  0.000  0.000  0.000  0.000  0.000  0.000  1.000  0.000  0.000
       0.000  0.000  0.000  0.000  0.000  0.000  0.000  0.000  1.000  0.000
       0.000  0.000  0.000  0.000  0.000  0.000  0.000  0.000  0.000  1.000
       1.000  0.000  0.000  0.000  0.000  0.000  0.000  0.000  0.000  0.000
       0.000  1.000  0.000  0.000  0.000  0.000  0.000  0.000  0.000  0.000
       0.000  0.000  1.000  0.000  0.000  0.000  0.000  0.000  0.000  0.000
       0.000  0.000  0.000  1.000  0.000  0.000  0.000  0.000  0.000  0.000
       0.000  0.000  0.000  0.000  1.000  0.000  0.000  0.000  0.000  0.000
     occupations, | n_(i1, i2)^(sigma1, sigma2) |:
       1.000  0.000  0.000  0.000  0.000  0.000  0.000  0.000  0.000  0.000
       0.000  1.000  0.000  0.000  0.000  0.000  0.000  0.000  0.000  0.000
       0.000  0.000  1.000  0.000  0.000  0.000  0.000  0.000  0.000  0.000
       0.000  0.000  0.000  1.000  0.000  0.000  0.000  0.000  0.000  0.000
       0.000  0.000  0.000  0.000  1.000  0.000  0.000  0.000  0.000  0.000
       0.000  0.000  0.000  0.000  0.000  0.600  0.000  0.000  0.000  0.000
       0.000  0.000  0.000  0.000  0.000  0.000  0.600  0.000  0.000  0.000
       0.000  0.000  0.000  0.000  0.000  0.000  0.000  0.600  0.000  0.000
       0.000  0.000  0.000  0.000  0.000  0.000  0.000  0.000  0.600  0.000
       0.000  0.000  0.000  0.000  0.000  0.000  0.000  0.000  0.000  0.600
     Atomic magnetic moment mx, my, mz =     0.000000    0.000000    2.000000
     ------------------------ ATOM   20 ------------------------
     Tr[ns( 20)] (up, down, total) =   3.00000  5.00000  8.00000
     eigenvalues:
       0.600  0.600  0.600  0.600  0.600  1.000  1.000  1.000  1.000  1.000
     eigenvectors (columns):
       1.000  0.000  0.000  0.000  0.000  0.000  0.000  0.000  0.000  0.000
       0.000  1.000  0.000  0.000  0.000  0.000  0.000  0.000  0.000  0.000
       0.000  0.000  1.000  0.000  0.000  0.000  0.000  0.000  0.000  0.000
       0.000  0.000  0.000  1.000  0.000  0.000  0.000  0.000  0.000  0.000
       0.000  0.000  0.000  0.000  1.000  0.000  0.000  0.000  0.000  0.000
       0.000  0.000  0.000  0.000  0.000  1.000  0.000  0.000  0.000  0.000
       0.000  0.000  0.000  0.000  0.000  0.000  1.000  0.000  0.000  0.000
       0.000  0.000  0.000  0.000  0.000  0.000  0.000  1.000  0.000  0.000
       0.000  0.000  0.000  0.000  0.000  0.000  0.000  0.000  1.000  0.000
       0.000  0.000  0.000  0.000  0.000  0.000  0.000  0.000  0.000  1.000
     occupations, | n_(i1, i2)^(sigma1, sigma2) |:
       0.600  0.000  0.000  0.000  0.000  0.000  0.000  0.000  0.000  0.000
       0.000  0.600  0.000  0.000  0.000  0.000  0.000  0.000  0.000  0.000
       0.000  0.000  0.600  0.000  0.000  0.000  0.000  0.000  0.000  0.000
       0.000  0.000  0.000  0.600  0.000  0.000  0.000  0.000  0.000  0.000
       0.000  0.000  0.000  0.000  0.600  0.000  0.000  0.000  0.000  0.000
       0.000  0.000  0.000  0.000  0.000  1.000  0.000  0.000  0.000  0.000
       0.000  0.000  0.000  0.000  0.000  0.000  1.000  0.000  0.000  0.000
       0.000  0.000  0.000  0.000  0.000  0.000  0.000  1.000  0.000  0.000
       0.000  0.000  0.000  0.000  0.000  0.000  0.000  0.000  1.000  0.000
       0.000  0.000  0.000  0.000  0.000  0.000  0.000  0.000  0.000  1.000
     Atomic magnetic moment mx, my, mz =     0.000000    0.000000   -2.000000
     ------------------------ ATOM   21 ------------------------
     Tr[ns( 21)] (up, down, total) =   5.00000  3.00000  8.00000
     eigenvalues:
       0.600  0.600  0.600  0.600  0.600  1.000  1.000  1.000  1.000  1.000
     eigenvectors (columns):
       0.000  0.000  0.000  0.000  0.000  1.000  0.000  0.000  0.000  0.000
       0.000  0.000  0.000  0.000  0.000  0.000  1.000  0.000  0.000  0.000
       0.000  0.000  0.000  0.000  0.000  0.000  0.000  1.000  0.000  0.000
       0.000  0.000  0.000  0.000  0.000  0.000  0.000  0.000  1.000  0.000
       0.000  0.000  0.000  0.000  0.000  0.000  0.000  0.000  0.000  1.000
       1.000  0.000  0.000  0.000  0.000  0.000  0.000  0.000  0.000  0.000
       0.000  1.000  0.000  0.000  0.000  0.000  0.000  0.000  0.000  0.000
       0.000  0.000  1.000  0.000  0.000  0.000  0.000  0.000  0.000  0.000
       0.000  0.000  0.000  1.000  0.000  0.000  0.000  0.000  0.000  0.000
       0.000  0.000  0.000  0.000  1.000  0.000  0.000  0.000  0.000  0.000
     occupations, | n_(i1, i2)^(sigma1, sigma2) |:
       1.000  0.000  0.000  0.000  0.000  0.000  0.000  0.000  0.000  0.000
       0.000  1.000  0.000  0.000  0.000  0.000  0.000  0.000  0.000  0.000
       0.000  0.000  1.000  0.000  0.000  0.000  0.000  0.000  0.000  0.000
       0.000  0.000  0.000  1.000  0.000  0.000  0.000  0.000  0.000  0.000
       0.000  0.000  0.000  0.000  1.000  0.000  0.000  0.000  0.000  0.000
       0.000  0.000  0.000  0.000  0.000  0.600  0.000  0.000  0.000  0.000
       0.000  0.000  0.000  0.000  0.000  0.000  0.600  0.000  0.000  0.000
       0.000  0.000  0.000  0.000  0.000  0.000  0.000  0.600  0.000  0.000
       0.000  0.000  0.000  0.000  0.000  0.000  0.000  0.000  0.600  0.000
       0.000  0.000  0.000  0.000  0.000  0.000  0.000  0.000  0.000  0.600
     Atomic magnetic moment mx, my, mz =     0.000000    0.000000    2.000000
     ------------------------ ATOM   23 ------------------------
     Tr[ns( 23)] (up, down, total) =   5.00000  3.00000  8.00000
     eigenvalues:
       0.600  0.600  0.600  0.600  0.600  1.000  1.000  1.000  1.000  1.000
     eigenvectors (columns):
       0.000  0.000  0.000  0.000  0.000  1.000  0.000  0.000  0.000  0.000
       0.000  0.000  0.000  0.000  0.000  0.000  1.000  0.000  0.000  0.000
       0.000  0.000  0.000  0.000  0.000  0.000  0.000  1.000  0.000  0.000
       0.000  0.000  0.000  0.000  0.000  0.000  0.000  0.000  1.000  0.000
       0.000  0.000  0.000  0.000  0.000  0.000  0.000  0.000  0.000  1.000
       1.000  0.000  0.000  0.000  0.000  0.000  0.000  0.000  0.000  0.000
       0.000  1.000  0.000  0.000  0.000  0.000  0.000  0.000  0.000  0.000
       0.000  0.000  1.000  0.000  0.000  0.000  0.000  0.000  0.000  0.000
       0.000  0.000  0.000  1.000  0.000  0.000  0.000  0.000  0.000  0.000
       0.000  0.000  0.000  0.000  1.000  0.000  0.000  0.000  0.000  0.000
     occupations, | n_(i1, i2)^(sigma1, sigma2) |:
       1.000  0.000  0.000  0.000  0.000  0.000  0.000  0.000  0.000  0.000
       0.000  1.000  0.000  0.000  0.000  0.000  0.000  0.000  0.000  0.000
       0.000  0.000  1.000  0.000  0.000  0.000  0.000  0.000  0.000  0.000
       0.000  0.000  0.000  1.000  0.000  0.000  0.000  0.000  0.000  0.000
       0.000  0.000  0.000  0.000  1.000  0.000  0.000  0.000  0.000  0.000
       0.000  0.000  0.000  0.000  0.000  0.600  0.000  0.000  0.000  0.000
       0.000  0.000  0.000  0.000  0.000  0.000  0.600  0.000  0.000  0.000
       0.000  0.000  0.000  0.000  0.000  0.000  0.000  0.600  0.000  0.000
       0.000  0.000  0.000  0.000  0.000  0.000  0.000  0.000  0.600  0.000
       0.000  0.000  0.000  0.000  0.000  0.000  0.000  0.000  0.000  0.600
     Atomic magnetic moment mx, my, mz =     0.000000    0.000000    2.000000
     ------------------------ ATOM   24 ------------------------
     Tr[ns( 24)] (up, down, total) =   3.00000  5.00000  8.00000
     eigenvalues:
       0.600  0.600  0.600  0.600  0.600  1.000  1.000  1.000  1.000  1.000
     eigenvectors (columns):
       1.000  0.000  0.000  0.000  0.000  0.000  0.000  0.000  0.000  0.000
       0.000  1.000  0.000  0.000  0.000  0.000  0.000  0.000  0.000  0.000
       0.000  0.000  1.000  0.000  0.000  0.000  0.000  0.000  0.000  0.000
       0.000  0.000  0.000  1.000  0.000  0.000  0.000  0.000  0.000  0.000
       0.000  0.000  0.000  0.000  1.000  0.000  0.000  0.000  0.000  0.000
       0.000  0.000  0.000  0.000  0.000  1.000  0.000  0.000  0.000  0.000
       0.000  0.000  0.000  0.000  0.000  0.000  1.000  0.000  0.000  0.000
       0.000  0.000  0.000  0.000  0.000  0.000  0.000  1.000  0.000  0.000
       0.000  0.000  0.000  0.000  0.000  0.000  0.000  0.000  1.000  0.000
       0.000  0.000  0.000  0.000  0.000  0.000  0.000  0.000  0.000  1.000
     occupations, | n_(i1, i2)^(sigma1, sigma2) |:
       0.600  0.000  0.000  0.000  0.000  0.000  0.000  0.000  0.000  0.000
       0.000  0.600  0.000  0.000  0.000  0.000  0.000  0.000  0.000  0.000
       0.000  0.000  0.600  0.000  0.000  0.000  0.000  0.000  0.000  0.000
       0.000  0.000  0.000  0.600  0.000  0.000  0.000  0.000  0.000  0.000
       0.000  0.000  0.000  0.000  0.600  0.000  0.000  0.000  0.000  0.000
       0.000  0.000  0.000  0.000  0.000  1.000  0.000  0.000  0.000  0.000
       0.000  0.000  0.000  0.000  0.000  0.000  1.000  0.000  0.000  0.000
       0.000  0.000  0.000  0.000  0.000  0.000  0.000  1.000  0.000  0.000
       0.000  0.000  0.000  0.000  0.000  0.000  0.000  0.000  1.000  0.000
       0.000  0.000  0.000  0.000  0.000  0.000  0.000  0.000  0.000  1.000
     Atomic magnetic moment mx, my, mz =     0.000000    0.000000   -2.000000

     Number of occupied Hubbard levels =   64.0000

 ==============================================================================
     atom number    1 relative position :    0.2500   0.2500   0.7770
     charge :     7.973795  (integrated on a sphere of radius 0.128)
     magnetization :          0.000000    0.000000    0.000000
     magnetization/charge:    0.000000    0.000000    0.000000
     polar coord.: r, theta, phi [deg] :     0.000000  360.000000  360.000000

 ==============================================================================

 ==============================================================================
     atom number    2 relative position :    0.2500   0.7500   0.7770
     charge :     7.973795  (integrated on a sphere of radius 0.128)
     magnetization :          0.000000    0.000000    0.000000
     magnetization/charge:    0.000000    0.000000    0.000000
     polar coord.: r, theta, phi [deg] :     0.000000  360.000000  360.000000

 ==============================================================================

 ==============================================================================
     atom number    3 relative position :    0.7500   0.2500   0.7770
     charge :     7.973795  (integrated on a sphere of radius 0.128)
     magnetization :          0.000000    0.000000    0.000000
     magnetization/charge:    0.000000    0.000000    0.000000
     polar coord.: r, theta, phi [deg] :     0.000000  360.000000  360.000000

 ==============================================================================

 ==============================================================================
     atom number    4 relative position :    0.7500   0.7500   0.7770
     charge :     7.973795  (integrated on a sphere of radius 0.128)
     magnetization :          0.000000    0.000000    0.000000
     magnetization/charge:    0.000000    0.000000    0.000000
     polar coord.: r, theta, phi [deg] :     0.000000  360.000000  360.000000

 ==============================================================================

 ==============================================================================
     atom number    5 relative position :    0.2500   0.2500   0.3206
     charge :     7.028817  (integrated on a sphere of radius 0.151)
     magnetization :          0.000000    0.000000   -0.000000
     magnetization/charge:    0.000000    0.000000   -0.000000
     polar coord.: r, theta, phi [deg] :     0.000000  180.000000  360.000000

 ==============================================================================

 ==============================================================================
     atom number    6 relative position :    0.2500   0.2500   1.2335
     charge :     7.028817  (integrated on a sphere of radius 0.151)
     magnetization :          0.000000    0.000000    0.000000
     magnetization/charge:    0.000000    0.000000    0.000000
     polar coord.: r, theta, phi [deg] :     0.000000    0.000000  360.000000

 ==============================================================================

 ==============================================================================
     atom number    7 relative position :    0.2500   0.7500   0.3206
     charge :     7.028817  (integrated on a sphere of radius 0.151)
     magnetization :          0.000000    0.000000   -0.000000
     magnetization/charge:    0.000000    0.000000   -0.000000
     polar coord.: r, theta, phi [deg] :     0.000000  180.000000  360.000000

 ==============================================================================

 ==============================================================================
     atom number    8 relative position :    0.2500   0.7500   1.2335
     charge :     7.028817  (integrated on a sphere of radius 0.151)
     magnetization :          0.000000    0.000000    0.000000
     magnetization/charge:    0.000000    0.000000    0.000000
     polar coord.: r, theta, phi [deg] :     0.000000    0.000000  360.000000

 ==============================================================================

 ==============================================================================
     atom number    9 relative position :    0.7500   0.2500   0.3206
     charge :     7.028817  (integrated on a sphere of radius 0.151)
     magnetization :          0.000000    0.000000   -0.000000
     magnetization/charge:    0.000000    0.000000   -0.000000
     polar coord.: r, theta, phi [deg] :     0.000000  180.000000  360.000000

 ==============================================================================

 ==============================================================================
     atom number   10 relative position :    0.7500   0.2500   1.2335
     charge :     7.028817  (integrated on a sphere of radius 0.151)
     magnetization :          0.000000    0.000000    0.000000
     magnetization/charge:    0.000000    0.000000    0.000000
     polar coord.: r, theta, phi [deg] :     0.000000    0.000000  360.000000

 ==============================================================================

 ==============================================================================
     atom number   11 relative position :    0.7500   0.7500   0.3206
     charge :     7.028817  (integrated on a sphere of radius 0.151)
     magnetization :          0.000000    0.000000   -0.000000
     magnetization/charge:    0.000000    0.000000   -0.000000
     polar coord.: r, theta, phi [deg] :     0.000000  180.000000  360.000000

 ==============================================================================

 ==============================================================================
     atom number   12 relative position :    0.7500   0.7500   1.2335
     charge :     7.028817  (integrated on a sphere of radius 0.151)
     magnetization :          0.000000    0.000000    0.000000
     magnetization/charge:    0.000000    0.000000    0.000000
     polar coord.: r, theta, phi [deg] :     0.000000    0.000000  360.000000

 ==============================================================================

 ==============================================================================
     atom number   13 relative position :    0.0000   0.0000   0.0000
     charge :    15.855071  (integrated on a sphere of radius 0.094)
     magnetization :          0.000000    0.000000    0.000000
     magnetization/charge:    0.000000    0.000000    0.000000
     polar coord.: r, theta, phi [deg] :     0.000000  360.000000  360.000000

 ==============================================================================

 ==============================================================================
     atom number   14 relative position :    0.0000   0.0000   0.5813
     charge :    16.370467  (integrated on a sphere of radius 0.103)
     magnetization :          0.000000    0.000000    1.619358
     magnetization/charge:    0.000000    0.000000    0.098919
     polar coord.: r, theta, phi [deg] :     1.619358    0.000000  360.000000

 ==============================================================================

 ==============================================================================
     atom number   15 relative position :    0.0000   0.0000   0.9728
     charge :    16.370467  (integrated on a sphere of radius 0.103)
     magnetization :          0.000000    0.000000   -1.619358
     magnetization/charge:    0.000000    0.000000   -0.098919
     polar coord.: r, theta, phi [deg] :     1.619358  180.000000  360.000000

 ==============================================================================

 ==============================================================================
     atom number   16 relative position :    0.0000   0.5000   0.0000
     charge :    15.855691  (integrated on a sphere of radius 0.094)
     magnetization :          0.000000    0.000000   -0.000000
     magnetization/charge:    0.000000    0.000000   -0.000000
     polar coord.: r, theta, phi [deg] :     0.000000  360.000000  360.000000

 ==============================================================================

 ==============================================================================
     atom number   17 relative position :    0.0000   0.5000   0.5813
     charge :    16.370548  (integrated on a sphere of radius 0.103)
     magnetization :          0.000000    0.000000   -1.619367
     magnetization/charge:    0.000000    0.000000   -0.098920
     polar coord.: r, theta, phi [deg] :     1.619367  180.000000  360.000000

 ==============================================================================

 ==============================================================================
     atom number   18 relative position :    0.0000   0.5000   0.9728
     charge :    16.370549  (integrated on a sphere of radius 0.103)
     magnetization :          0.000000    0.000000    1.619367
     magnetization/charge:    0.000000    0.000000    0.098920
     polar coord.: r, theta, phi [deg] :     1.619367    0.000000  360.000000

 ==============================================================================

 ==============================================================================
     atom number   19 relative position :    0.5000   0.0000   0.0000
     charge :    15.855691  (integrated on a sphere of radius 0.094)
     magnetization :          0.000000    0.000000   -0.000000
     magnetization/charge:    0.000000    0.000000   -0.000000
     polar coord.: r, theta, phi [deg] :     0.000000  360.000000  360.000000

 ==============================================================================

 ==============================================================================
     atom number   20 relative position :    0.5000   0.0000   0.5813
     charge :    16.370549  (integrated on a sphere of radius 0.103)
     magnetization :          0.000000    0.000000   -1.619367
     magnetization/charge:    0.000000    0.000000   -0.098920
     polar coord.: r, theta, phi [deg] :     1.619367  180.000000  360.000000

 ==============================================================================

 ==============================================================================
     atom number   21 relative position :    0.5000   0.0000   0.9728
     charge :    16.370549  (integrated on a sphere of radius 0.103)
     magnetization :          0.000000    0.000000    1.619367
     magnetization/charge:    0.000000    0.000000    0.098920
     polar coord.: r, theta, phi [deg] :     1.619367    0.000000  360.000000

 ==============================================================================

 ==============================================================================
     atom number   22 relative position :    0.5000   0.5000   0.0000
     charge :    15.856331  (integrated on a sphere of radius 0.094)
     magnetization :          0.000000    0.000000    0.000000
     magnetization/charge:    0.000000    0.000000    0.000000
     polar coord.: r, theta, phi [deg] :     0.000000  360.000000  360.000000

 ==============================================================================

 ==============================================================================
     atom number   23 relative position :    0.5000   0.5000   0.5813
     charge :    16.370950  (integrated on a sphere of radius 0.103)
     magnetization :          0.000000    0.000000    1.619404
     magnetization/charge:    0.000000    0.000000    0.098919
     polar coord.: r, theta, phi [deg] :     1.619404    0.000000  360.000000

 ==============================================================================

 ==============================================================================
     atom number   24 relative position :    0.5000   0.5000   0.9728
     charge :    16.370950  (integrated on a sphere of radius 0.103)
     magnetization :          0.000000    0.000000   -1.619404
     magnetization/charge:    0.000000    0.000000   -0.098919
     polar coord.: r, theta, phi [deg] :     1.619404  180.000000  360.000000

 ==============================================================================

 ==============================================================================
     atom number   25 relative position :    0.0000   0.0000   0.2280
     charge :     4.711242  (integrated on a sphere of radius 0.094)
     magnetization :          0.000000    0.000000    0.000206
     magnetization/charge:    0.000000    0.000000    0.000044
     polar coord.: r, theta, phi [deg] :     0.000206    0.000000  360.000000

 ==============================================================================

 ==============================================================================
     atom number   26 relative position :    0.0000   0.0000   1.3261
     charge :     4.711241  (integrated on a sphere of radius 0.094)
     magnetization :          0.000000    0.000000   -0.000206
     magnetization/charge:    0.000000    0.000000   -0.000044
     polar coord.: r, theta, phi [deg] :     0.000206  180.000000  360.000000

 ==============================================================================

 ==============================================================================
     atom number   27 relative position :    0.5000   0.0000   0.2280
     charge :     4.711433  (integrated on a sphere of radius 0.094)
     magnetization :          0.000000    0.000000   -0.000206
     magnetization/charge:    0.000000    0.000000   -0.000044
     polar coord.: r, theta, phi [deg] :     0.000206  180.000000  360.000000

 ==============================================================================

 ==============================================================================
     atom number   28 relative position :    0.5000   0.0000   1.3261
     charge :     4.711431  (integrated on a sphere of radius 0.094)
     magnetization :          0.000000    0.000000    0.000206
     magnetization/charge:    0.000000    0.000000    0.000044
     polar coord.: r, theta, phi [deg] :     0.000206    0.000000  360.000000

 ==============================================================================

 ==============================================================================
     atom number   29 relative position :    0.0000   0.5000   0.2280
     charge :     4.711433  (integrated on a sphere of radius 0.094)
     magnetization :          0.000000    0.000000   -0.000206
     magnetization/charge:    0.000000    0.000000   -0.000044
     polar coord.: r, theta, phi [deg] :     0.000206  180.000000  360.000000

 ==============================================================================

 ==============================================================================
     atom number   30 relative position :    0.0000   0.5000   1.3261
     charge :     4.711431  (integrated on a sphere of radius 0.094)
     magnetization :          0.000000    0.000000    0.000206
     magnetization/charge:    0.000000    0.000000    0.000044
     polar coord.: r, theta, phi [deg] :     0.000206    0.000000  360.000000

 ==============================================================================

 ==============================================================================
     atom number   31 relative position :    0.5000   0.5000   0.2280
     charge :     4.711419  (integrated on a sphere of radius 0.094)
     magnetization :          0.000000    0.000000    0.000206
     magnetization/charge:    0.000000    0.000000    0.000044
     polar coord.: r, theta, phi [deg] :     0.000206    0.000000  360.000000

 ==============================================================================

 ==============================================================================
     atom number   32 relative position :    0.5000   0.5000   1.3261
     charge :     4.711417  (integrated on a sphere of radius 0.094)
     magnetization :          0.000000    0.000000   -0.000206
     magnetization/charge:    0.000000    0.000000   -0.000044
     polar coord.: r, theta, phi [deg] :     0.000206  180.000000  360.000000

 ==============================================================================

 ==============================================================================
     atom number   33 relative position :    0.2500   0.0000   0.5917
     charge :     4.749620  (integrated on a sphere of radius 0.094)
     magnetization :          0.000000    0.000000    0.000003
     magnetization/charge:    0.000000    0.000000    0.000001
     polar coord.: r, theta, phi [deg] :     0.000003    0.000000  360.000000

 ==============================================================================

 ==============================================================================
     atom number   34 relative position :    0.2500   0.0000   0.9624
     charge :     4.749620  (integrated on a sphere of radius 0.094)
     magnetization :          0.000000    0.000000   -0.000003
     magnetization/charge:    0.000000    0.000000   -0.000001
     polar coord.: r, theta, phi [deg] :     0.000003  180.000000  360.000000

 ==============================================================================

 ==============================================================================
     atom number   35 relative position :    0.2500   0.5000   0.5917
     charge :     4.750149  (integrated on a sphere of radius 0.094)
     magnetization :          0.000000    0.000000   -0.000001
     magnetization/charge:    0.000000    0.000000   -0.000000
     polar coord.: r, theta, phi [deg] :     0.000001  180.000000  360.000000

 ==============================================================================

 ==============================================================================
     atom number   36 relative position :    0.2500   0.5000   0.9624
     charge :     4.750149  (integrated on a sphere of radius 0.094)
     magnetization :          0.000000    0.000000    0.000001
     magnetization/charge:    0.000000    0.000000    0.000000
     polar coord.: r, theta, phi [deg] :     0.000001    0.000000  360.000000

 ==============================================================================

 ==============================================================================
     atom number   37 relative position :    0.7500   0.0000   0.5917
     charge :     4.749620  (integrated on a sphere of radius 0.094)
     magnetization :          0.000000    0.000000    0.000003
     magnetization/charge:    0.000000    0.000000    0.000001
     polar coord.: r, theta, phi [deg] :     0.000003    0.000000  360.000000

 ==============================================================================

 ==============================================================================
     atom number   38 relative position :    0.7500   0.0000   0.9624
     charge :     4.749620  (integrated on a sphere of radius 0.094)
     magnetization :          0.000000    0.000000   -0.000003
     magnetization/charge:    0.000000    0.000000   -0.000001
     polar coord.: r, theta, phi [deg] :     0.000003  180.000000  360.000000

 ==============================================================================

 ==============================================================================
     atom number   39 relative position :    0.7500   0.5000   0.5917
     charge :     4.750149  (integrated on a sphere of radius 0.094)
     magnetization :          0.000000    0.000000   -0.000001
     magnetization/charge:    0.000000    0.000000   -0.000000
     polar coord.: r, theta, phi [deg] :     0.000001  180.000000  360.000000

 ==============================================================================

 ==============================================================================
     atom number   40 relative position :    0.7500   0.5000   0.9624
     charge :     4.750149  (integrated on a sphere of radius 0.094)
     magnetization :          0.000000    0.000000    0.000001
     magnetization/charge:    0.000000    0.000000    0.000000
     polar coord.: r, theta, phi [deg] :     0.000001    0.000000  360.000000

 ==============================================================================

 ==============================================================================
     atom number   41 relative position :    0.0000   0.2500   0.5917
     charge :     4.749630  (integrated on a sphere of radius 0.094)
     magnetization :          0.000000    0.000000    0.000003
     magnetization/charge:    0.000000    0.000000    0.000001
     polar coord.: r, theta, phi [deg] :     0.000003    0.000000  360.000000

 ==============================================================================

 ==============================================================================
     atom number   42 relative position :    0.0000   0.2500   0.9623
     charge :     4.749630  (integrated on a sphere of radius 0.094)
     magnetization :          0.000000    0.000000   -0.000003
     magnetization/charge:    0.000000    0.000000   -0.000001
     polar coord.: r, theta, phi [deg] :     0.000003  180.000000  360.000000

 ==============================================================================

 ==============================================================================
     atom number   43 relative position :    0.5000   0.2500   0.5917
     charge :     4.750154  (integrated on a sphere of radius 0.094)
     magnetization :          0.000000    0.000000   -0.000001
     magnetization/charge:    0.000000    0.000000   -0.000000
     polar coord.: r, theta, phi [deg] :     0.000001  180.000000  360.000000

 ==============================================================================

 ==============================================================================
     atom number   44 relative position :    0.5000   0.2500   0.9623
     charge :     4.750155  (integrated on a sphere of radius 0.094)
     magnetization :          0.000000    0.000000    0.000001
     magnetization/charge:    0.000000    0.000000    0.000000
     polar coord.: r, theta, phi [deg] :     0.000001    0.000000  360.000000

 ==============================================================================

 ==============================================================================
     atom number   45 relative position :    0.0000   0.7500   0.5917
     charge :     4.749630  (integrated on a sphere of radius 0.094)
     magnetization :          0.000000    0.000000    0.000003
     magnetization/charge:    0.000000    0.000000    0.000001
     polar coord.: r, theta, phi [deg] :     0.000003    0.000000  360.000000

 ==============================================================================

 ==============================================================================
     atom number   46 relative position :    0.0000   0.7500   0.9623
     charge :     4.749630  (integrated on a sphere of radius 0.094)
     magnetization :          0.000000    0.000000   -0.000003
     magnetization/charge:    0.000000    0.000000   -0.000001
     polar coord.: r, theta, phi [deg] :     0.000003  180.000000  360.000000

 ==============================================================================

 ==============================================================================
     atom number   47 relative position :    0.5000   0.7500   0.5917
     charge :     4.750154  (integrated on a sphere of radius 0.094)
     magnetization :          0.000000    0.000000   -0.000001
     magnetization/charge:    0.000000    0.000000   -0.000000
     polar coord.: r, theta, phi [deg] :     0.000001  180.000000  360.000000

 ==============================================================================

 ==============================================================================
     atom number   48 relative position :    0.5000   0.7500   0.9623
     charge :     4.750155  (integrated on a sphere of radius 0.094)
     magnetization :          0.000000    0.000000    0.000001
     magnetization/charge:    0.000000    0.000000    0.000000
     polar coord.: r, theta, phi [deg] :     0.000001    0.000000  360.000000

 ==============================================================================

     Atomic wfc used for Hubbard projectors are orthogonalized

     Starting wfcs are  816 randomized atomic wfcs

     total cpu time spent up to now is       69.9 secs

     Self-consistent Calculation

     iteration #  1     ecut=    90.00 Ry     beta= 0.10
     Davidson diagonalization with overlap

---- Real-time Memory Report at c_bands before calling an iterative solver
          2678 MiB given to the printing process from OS
             0 MiB allocation reported by mallinfo(arena+hblkhd)
         10610 MiB available memory on the node where the printing process lives
------------------
     ethr =  1.00E-02,  avg # of iterations =  2.0

     ================= HUBBARD OCCUPATIONS ================
     ------------------------ ATOM   14 ------------------------
     Tr[ns( 14)] (up, down, total) =   4.86217  4.11143  8.97360
     eigenvalues:
       0.317  0.865  0.926  0.942  0.957  0.987  0.987  0.990  1.002  1.002
     eigenvectors (columns):
       0.000 -0.000 -0.000  0.000  0.519 -0.000 -0.000  0.001  0.000  0.000
      -0.000  0.000 -0.000  0.000 -0.000  0.000  0.000  0.000 -0.000  0.000
       0.000 -0.000  0.000  0.000 -0.000 -0.997 -0.080  0.000  0.000  0.000
       0.000  0.000 -0.000  0.858 -0.000  0.000  0.000 -0.001  0.000  0.000
      -0.000  0.000  0.000  0.001 -0.001 -0.000 -0.000 -0.707 -0.000  0.000
      -0.000  0.000 -0.000 -0.000 -0.000 -0.000  0.000  0.000 -0.000 -0.000
       0.000  0.000  0.000  0.000  0.000 -0.000  0.000 -0.000 -0.944 -0.005
      -0.000  0.000  0.000  0.000 -0.000 -0.000 -0.000 -0.000 -0.036 -0.993
      -0.000 -0.000  0.000 -0.000 -0.000 -0.000  0.000  0.000  0.000  0.000
       0.000  0.001  1.000  0.000  0.000  0.000  0.000  0.000  0.000  0.000
     occupations, | n_(i1, i2)^(sigma1, sigma2) |:
       0.957  0.000  0.000  0.000  0.000  0.000  0.000  0.000  0.000  0.000
       0.000  0.987  0.000  0.000  0.000  0.000  0.000  0.000  0.000  0.000
       0.000  0.000  0.987  0.000  0.000  0.000  0.000  0.000  0.000  0.000
       0.000  0.000  0.000  0.942  0.000  0.000  0.000  0.000  0.000  0.000
       0.000  0.000  0.000  0.000  0.990  0.000  0.000  0.000  0.000  0.000
       0.000  0.000  0.000  0.000  0.000  0.865  0.000  0.000  0.000  0.000
       0.000  0.000  0.000  0.000  0.000  0.000  1.002  0.000  0.000  0.000
       0.000  0.000  0.000  0.000  0.000  0.000  0.000  1.002  0.000  0.000
       0.000  0.000  0.000  0.000  0.000  0.000  0.000  0.000  0.317  0.000
       0.000  0.000  0.000  0.000  0.000  0.000  0.000  0.000  0.000  0.926
     Atomic magnetic moment mx, my, mz =    -0.000000    0.000000    0.750737
     ------------------------ ATOM   15 ------------------------
     Tr[ns( 15)] (up, down, total) =   4.11179  4.86231  8.97410
     eigenvalues:
       0.317  0.865  0.927  0.942  0.957  0.987  0.987  0.990  1.002  1.002
     eigenvectors (columns):
       0.000 -0.069  0.000 -0.000 -0.000 -0.000 -0.000  0.000 -0.000 -0.000
      -0.000  0.000 -0.000  0.000  0.000  0.000 -0.000  0.000  0.000 -0.000
      -0.000  0.000 -0.000  0.000  0.000 -0.000  0.000 -0.000 -0.645 -0.764
      -0.426 -0.000 -0.000 -0.000 -0.000  0.000  0.000  0.000  0.000  0.000
       0.000  0.000 -0.707 -0.000  0.000 -0.000  0.000  0.000  0.000  0.000
       0.000  0.000 -0.000  0.000  0.000 -0.000 -0.000 -0.000  0.000 -0.000
      -0.000  0.000  0.000 -0.000  0.000 -0.003 -0.962 -0.000  0.000 -0.000
      -0.000  0.000  0.000  0.000 -0.000 -0.995 -0.025 -0.000  0.000  0.000
      -0.000 -0.000  0.000 -0.000  0.000  0.000  0.000  0.000 -0.000  0.000
      -0.000 -0.000  0.000  0.000  0.001 -0.000 -0.000  1.000 -0.000 -0.000
     occupations, | n_(i1, i2)^(sigma1, sigma2) |:
       0.865  0.000  0.000  0.000  0.000  0.000  0.000  0.000  0.000  0.000
       0.000  1.002  0.000  0.000  0.000  0.000  0.000  0.000  0.000  0.000
       0.000  0.000  1.002  0.000  0.000  0.000  0.000  0.000  0.000  0.000
       0.000  0.000  0.000  0.317  0.000  0.000  0.000  0.000  0.000  0.000
       0.000  0.000  0.000  0.000  0.927  0.000  0.000  0.000  0.000  0.000
       0.000  0.000  0.000  0.000  0.000  0.957  0.000  0.000  0.000  0.000
       0.000  0.000  0.000  0.000  0.000  0.000  0.987  0.000  0.000  0.000
       0.000  0.000  0.000  0.000  0.000  0.000  0.000  0.987  0.000  0.000
       0.000  0.000  0.000  0.000  0.000  0.000  0.000  0.000  0.942  0.000
       0.000  0.000  0.000  0.000  0.000  0.000  0.000  0.000  0.000  0.990
     Atomic magnetic moment mx, my, mz =     0.000000   -0.000000   -0.750525
     ------------------------ ATOM   17 ------------------------
     Tr[ns( 17)] (up, down, total) =   4.11124  4.86248  8.97372
     eigenvalues:
       0.317  0.865  0.926  0.942  0.957  0.987  0.987  0.990  1.002  1.002
     eigenvectors (columns):
      -0.000  0.805 -0.001 -0.000  0.000 -0.000 -0.000  0.000 -0.000 -0.000
       0.000 -0.000  0.000  0.000 -0.000  0.000 -0.000 -0.000 -0.000 -0.000
       0.000 -0.000  0.000 -0.000  0.000  0.000  0.000 -0.000  0.324 -0.946
       0.991  0.000  0.000 -0.000 -0.000 -0.000 -0.000 -0.000 -0.000  0.000
      -0.000  0.000  0.707 -0.000  0.000  0.000  0.000  0.000 -0.000  0.000
       0.000  0.000  0.000 -0.000 -0.000 -0.000 -0.000 -0.000  0.000  0.000
      -0.000 -0.000 -0.000  0.000 -0.000 -0.168 -0.337 -0.000 -0.000 -0.000
      -0.000 -0.000  0.000  0.000  0.000 -0.759 -0.555 -0.000  0.000 -0.000
      -0.000  0.000  0.000 -0.000  0.000  0.000  0.000  0.000  0.000  0.000
       0.000 -0.000 -0.000  0.000 -0.000 -0.000 -0.000  1.000  0.000 -0.000
     occupations, | n_(i1, i2)^(sigma1, sigma2) |:
       0.865  0.000  0.000  0.000  0.000  0.000  0.000  0.000  0.000  0.000
       0.000  1.002  0.000  0.000  0.000  0.000  0.000  0.000  0.000  0.000
       0.000  0.000  1.002  0.000  0.000  0.000  0.000  0.000  0.000  0.000
       0.000  0.000  0.000  0.317  0.000  0.000  0.000  0.000  0.000  0.000
       0.000  0.000  0.000  0.000  0.926  0.000  0.000  0.000  0.000  0.000
       0.000  0.000  0.000  0.000  0.000  0.957  0.000  0.000  0.000  0.000
       0.000  0.000  0.000  0.000  0.000  0.000  0.987  0.000  0.000  0.000
       0.000  0.000  0.000  0.000  0.000  0.000  0.000  0.987  0.000  0.000
       0.000  0.000  0.000  0.000  0.000  0.000  0.000  0.000  0.942  0.000
       0.000  0.000  0.000  0.000  0.000  0.000  0.000  0.000  0.000  0.990
     Atomic magnetic moment mx, my, mz =     0.000000   -0.000000   -0.751234
     ------------------------ ATOM   18 ------------------------
     Tr[ns( 18)] (up, down, total) =   4.86225  4.11189  8.97414
     eigenvalues:
       0.317  0.865  0.926  0.942  0.957  0.987  0.987  0.990  1.002  1.002
     eigenvectors (columns):
       0.000 -0.000  0.000 -0.001  0.198 -0.000  0.000  0.001  0.000  0.000
      -0.000 -0.000  0.000 -0.000 -0.000  0.000  0.000 -0.000 -0.000 -0.000
       0.000  0.000 -0.000 -0.000 -0.000 -0.461  0.887 -0.000 -0.000 -0.000
       0.000 -0.000  0.000 -0.795 -0.000  0.000 -0.000 -0.001 -0.000 -0.000
       0.000 -0.000  0.000  0.001  0.001 -0.000  0.000  0.707  0.000  0.000
      -0.000  0.000 -0.000  0.000 -0.000 -0.000  0.000  0.000  0.000 -0.000
       0.000  0.000  0.000 -0.000 -0.000  0.000 -0.000  0.000  0.578 -0.060
      -0.000  0.000  0.000 -0.000 -0.000  0.000 -0.000 -0.000  0.309 -0.907
      -0.000 -0.000  0.000  0.000  0.000 -0.000  0.000  0.000 -0.000  0.000
       0.000  0.000  1.000  0.000 -0.000 -0.000  0.000 -0.000 -0.000  0.000
     occupations, | n_(i1, i2)^(sigma1, sigma2) |:
       0.957  0.000  0.000  0.000  0.000  0.000  0.000  0.000  0.000  0.000
       0.000  0.987  0.000  0.000  0.000  0.000  0.000  0.000  0.000  0.000
       0.000  0.000  0.987  0.000  0.000  0.000  0.000  0.000  0.000  0.000
       0.000  0.000  0.000  0.942  0.000  0.000  0.000  0.000  0.000  0.000
       0.000  0.000  0.000  0.000  0.990  0.000  0.000  0.000  0.000  0.000
       0.000  0.000  0.000  0.000  0.000  0.865  0.000  0.000  0.000  0.000
       0.000  0.000  0.000  0.000  0.000  0.000  1.002  0.000  0.000  0.000
       0.000  0.000  0.000  0.000  0.000  0.000  0.000  1.002  0.000  0.000
       0.000  0.000  0.000  0.000  0.000  0.000  0.000  0.000  0.317  0.000
       0.000  0.000  0.000  0.000  0.000  0.000  0.000  0.000  0.000  0.926
     Atomic magnetic moment mx, my, mz =    -0.000000    0.000000    0.750361
     ------------------------ ATOM   20 ------------------------
     Tr[ns( 20)] (up, down, total) =   4.11179  4.86225  8.97404
     eigenvalues:
       0.317  0.865  0.926  0.942  0.957  0.987  0.987  0.990  1.002  1.002
     eigenvectors (columns):
       0.000  0.663  0.000  0.000  0.000 -0.000  0.000 -0.000  0.000  0.000
      -0.000 -0.000  0.000  0.000 -0.000  0.000 -0.000  0.000  0.000  0.000
      -0.000 -0.000  0.000  0.000  0.000 -0.000  0.000 -0.000  0.437  0.899
      -0.997  0.000  0.000 -0.000 -0.000 -0.000 -0.000 -0.000 -0.000 -0.000
      -0.000  0.000  0.707  0.000  0.000 -0.000 -0.000 -0.000 -0.000 -0.000
       0.000 -0.000 -0.000  0.000 -0.000  0.000  0.000  0.000  0.000  0.000
      -0.000 -0.000  0.000  0.000  0.000  0.777  0.026  0.000 -0.000  0.000
      -0.000 -0.000 -0.000  0.000  0.000  0.154  0.961  0.000 -0.000 -0.000
       0.000  0.000  0.000 -0.000 -0.000 -0.000 -0.000 -0.000 -0.000 -0.000
       0.000 -0.000 -0.000  0.000 -0.000  0.000  0.000 -1.000 -0.000  0.000
     occupations, | n_(i1, i2)^(sigma1, sigma2) |:
       0.865  0.000  0.000  0.000  0.000  0.000  0.000  0.000  0.000  0.000
       0.000  1.002  0.000  0.000  0.000  0.000  0.000  0.000  0.000  0.000
       0.000  0.000  1.002  0.000  0.000  0.000  0.000  0.000  0.000  0.000
       0.000  0.000  0.000  0.317  0.000  0.000  0.000  0.000  0.000  0.000
       0.000  0.000  0.000  0.000  0.926  0.000  0.000  0.000  0.000  0.000
       0.000  0.000  0.000  0.000  0.000  0.957  0.000  0.000  0.000  0.000
       0.000  0.000  0.000  0.000  0.000  0.000  0.987  0.000  0.000  0.000
       0.000  0.000  0.000  0.000  0.000  0.000  0.000  0.987  0.000  0.000
       0.000  0.000  0.000  0.000  0.000  0.000  0.000  0.000  0.942  0.000
       0.000  0.000  0.000  0.000  0.000  0.000  0.000  0.000  0.000  0.990
     Atomic magnetic moment mx, my, mz =     0.000000   -0.000000   -0.750453
     ------------------------ ATOM   21 ------------------------
     Tr[ns( 21)] (up, down, total) =   4.86237  4.11141  8.97379
     eigenvalues:
       0.317  0.865  0.926  0.942  0.957  0.987  0.987  0.990  1.002  1.002
     eigenvectors (columns):
      -0.000 -0.000  0.000 -0.001  0.631 -0.000 -0.000 -0.000  0.000  0.000
       0.000 -0.000 -0.000 -0.000 -0.000  0.000  0.000  0.000  0.000 -0.000
      -0.000 -0.000  0.000 -0.000 -0.000 -0.389 -0.921  0.000  0.000  0.000
       0.000 -0.000 -0.000 -0.686 -0.001  0.000  0.000  0.000  0.000 -0.000
      -0.000 -0.000  0.000  0.000  0.000 -0.000 -0.000 -0.707  0.000 -0.000
      -0.000 -0.000 -0.000  0.000 -0.000  0.000  0.000 -0.000  0.000  0.000
      -0.000 -0.000  0.000 -0.000 -0.000  0.000  0.000 -0.000  0.107  0.434
       0.000 -0.000  0.000  0.000 -0.000  0.000  0.000 -0.000  0.839  0.444
       0.000 -0.000  0.000  0.000  0.000  0.000  0.000 -0.000 -0.000 -0.000
      -0.000 -0.000  1.000 -0.000 -0.000  0.000  0.000  0.000 -0.000 -0.000
     occupations, | n_(i1, i2)^(sigma1, sigma2) |:
       0.957  0.000  0.000  0.000  0.000  0.000  0.000  0.000  0.000  0.000
       0.000  0.987  0.000  0.000  0.000  0.000  0.000  0.000  0.000  0.000
       0.000  0.000  0.987  0.000  0.000  0.000  0.000  0.000  0.000  0.000
       0.000  0.000  0.000  0.942  0.000  0.000  0.000  0.000  0.000  0.000
       0.000  0.000  0.000  0.000  0.990  0.000  0.000  0.000  0.000  0.000
       0.000  0.000  0.000  0.000  0.000  0.865  0.000  0.000  0.000  0.000
       0.000  0.000  0.000  0.000  0.000  0.000  1.002  0.000  0.000  0.000
       0.000  0.000  0.000  0.000  0.000  0.000  0.000  1.002  0.000  0.000
       0.000  0.000  0.000  0.000  0.000  0.000  0.000  0.000  0.317  0.000
       0.000  0.000  0.000  0.000  0.000  0.000  0.000  0.000  0.000  0.926
     Atomic magnetic moment mx, my, mz =    -0.000000    0.000000    0.750960
     ------------------------ ATOM   23 ------------------------
     Tr[ns( 23)] (up, down, total) =   4.86239  4.11132  8.97371
     eigenvalues:
       0.317  0.865  0.926  0.942  0.957  0.987  0.987  0.990  1.002  1.002
     eigenvectors (columns):
       0.000 -0.000  0.000 -0.001  0.240  0.000 -0.000  0.001  0.000  0.000
      -0.000 -0.000  0.000 -0.000 -0.000 -0.000 -0.000 -0.000 -0.000  0.000
       0.000 -0.000 -0.000 -0.000 -0.000  0.198 -0.980 -0.000  0.000 -0.000
       0.000 -0.000  0.000 -0.783 -0.000 -0.000  0.000 -0.001  0.000  0.000
       0.000  0.000  0.000  0.001 -0.001  0.000 -0.000  0.707  0.000  0.000
      -0.000  0.000 -0.000 -0.000  0.000  0.000 -0.000  0.000 -0.000 -0.000
       0.000  0.000  0.000 -0.000  0.000  0.000 -0.000  0.000 -0.875 -0.011
      -0.000  0.000  0.000  0.000 -0.000 -0.000  0.000  0.000 -0.082 -0.982
      -0.000 -0.000  0.000  0.000 -0.000  0.000 -0.000 -0.000  0.000  0.000
       0.001  0.000  1.000  0.000  0.000  0.000 -0.000 -0.000  0.000  0.000
     occupations, | n_(i1, i2)^(sigma1, sigma2) |:
       0.957  0.000  0.000  0.000  0.000  0.000  0.000  0.000  0.000  0.000
       0.000  0.987  0.000  0.000  0.000  0.000  0.000  0.000  0.000  0.000
       0.000  0.000  0.987  0.000  0.000  0.000  0.000  0.000  0.000  0.000
       0.000  0.000  0.000  0.942  0.000  0.000  0.000  0.000  0.000  0.000
       0.000  0.000  0.000  0.000  0.990  0.000  0.000  0.000  0.000  0.000
       0.000  0.000  0.000  0.000  0.000  0.865  0.000  0.000  0.000  0.000
       0.000  0.000  0.000  0.000  0.000  0.000  1.002  0.000  0.000  0.000
       0.000  0.000  0.000  0.000  0.000  0.000  0.000  1.002  0.000  0.000
       0.000  0.000  0.000  0.000  0.000  0.000  0.000  0.000  0.317  0.000
       0.000  0.000  0.000  0.000  0.000  0.000  0.000  0.000  0.000  0.926
     Atomic magnetic moment mx, my, mz =    -0.000000    0.000000    0.751073
     ------------------------ ATOM   24 ------------------------
     Tr[ns( 24)] (up, down, total) =   4.11137  4.86240  8.97377
     eigenvalues:
       0.317  0.865  0.926  0.942  0.957  0.987  0.987  0.990  1.002  1.002
     eigenvectors (columns):
       0.000 -0.441 -0.000  0.000  0.000  0.000 -0.000 -0.000  0.000  0.000
       0.000  0.000  0.000 -0.000 -0.000 -0.000  0.000 -0.000 -0.000 -0.000
       0.000  0.000  0.000  0.000 -0.000 -0.000 -0.000  0.000  0.225  0.974
       0.985  0.000 -0.000  0.000  0.000 -0.000  0.000 -0.000 -0.000 -0.000
       0.000  0.000  0.707 -0.000 -0.000 -0.000  0.000  0.000 -0.000 -0.000
       0.000  0.000 -0.000  0.000 -0.000 -0.000 -0.000 -0.000  0.000 -0.000
       0.000  0.000  0.000 -0.000 -0.000 -0.038 -0.704 -0.000  0.000 -0.000
       0.000 -0.000 -0.000 -0.000  0.000 -0.942 -0.211 -0.000 -0.000 -0.000
      -0.000 -0.000 -0.000  0.000  0.000  0.000  0.000  0.000  0.000 -0.000
       0.000 -0.000 -0.000 -0.000 -0.000 -0.000 -0.000  1.000 -0.000 -0.000
     occupations, | n_(i1, i2)^(sigma1, sigma2) |:
       0.865  0.000  0.000  0.000  0.000  0.000  0.000  0.000  0.000  0.000
       0.000  1.002  0.000  0.000  0.000  0.000  0.000  0.000  0.000  0.000
       0.000  0.000  1.002  0.000  0.000  0.000  0.000  0.000  0.000  0.000
       0.000  0.000  0.000  0.317  0.000  0.000  0.000  0.000  0.000  0.000
       0.000  0.000  0.000  0.000  0.926  0.000  0.000  0.000  0.000  0.000
       0.000  0.000  0.000  0.000  0.000  0.957  0.000  0.000  0.000  0.000
       0.000  0.000  0.000  0.000  0.000  0.000  0.987  0.000  0.000  0.000
       0.000  0.000  0.000  0.000  0.000  0.000  0.000  0.987  0.000  0.000
       0.000  0.000  0.000  0.000  0.000  0.000  0.000  0.000  0.942  0.000
       0.000  0.000  0.000  0.000  0.000  0.000  0.000  0.000  0.000  0.990
     Atomic magnetic moment mx, my, mz =     0.000000   -0.000000   -0.751031

     Number of occupied Hubbard levels =   71.7909

     negative rho (up, down):  7.660E-01 0.000E+00
 --- in v_hubbard ---
Hub. E (dc, noflip, flip, total)   52.5929  52.9828  -0.0000   0.3899
 -------

     total cpu time spent up to now is      216.8 secs

     total energy              =   -6557.31054076 Ry
     estimated scf accuracy    <       8.54193695 Ry

     total magnetization       =    -0.00     0.00     0.00 Bohr mag/cell
     absolute magnetization    =     7.49 Bohr mag/cell

     iteration #  2     ecut=    90.00 Ry     beta= 0.10
     Davidson diagonalization with overlap

---- Real-time Memory Report at c_bands before calling an iterative solver
          3529 MiB given to the printing process from OS
             0 MiB allocation reported by mallinfo(arena+hblkhd)
          9782 MiB available memory on the node where the printing process lives
------------------
     ethr =  1.72E-03,  avg # of iterations =  2.0

     ================= HUBBARD OCCUPATIONS ================
     ------------------------ ATOM   14 ------------------------
     Tr[ns( 14)] (up, down, total) =   4.86877  4.16190  9.03067
     eigenvalues:
       0.318  0.915  0.949  0.961  0.975  0.975  0.980  0.985  0.985  0.988
     eigenvectors (columns):
       0.000 -0.000 -0.000 -0.801 -0.000  0.000 -0.000  0.000  0.000 -0.000
      -0.000  0.000 -0.000  0.000  0.000  0.000 -0.000  0.000  0.000 -0.000
       0.000 -0.000 -0.000  0.000  0.000 -0.000 -0.000  0.958  0.288 -0.000
       0.000 -0.000 -0.893  0.000 -0.000  0.000  0.000 -0.000 -0.000  0.000
       0.000  0.000 -0.000  0.000 -0.000 -0.000 -0.000  0.000  0.000  0.707
      -0.000  0.000 -0.000  0.000  0.000 -0.000  0.000  0.000 -0.000 -0.000
       0.000  0.000 -0.000 -0.000  0.409 -0.128  0.000 -0.000 -0.000 -0.000
       0.000 -0.000 -0.000  0.000  0.478 -0.814  0.000 -0.000 -0.000  0.000
      -0.000 -0.000  0.000  0.000 -0.000  0.000 -0.000  0.000 -0.000 -0.000
       0.000  0.001 -0.000  0.000  0.000 -0.000 -1.000 -0.000 -0.000 -0.000
     occupations, | n_(i1, i2)^(sigma1, sigma2) |:
       0.961  0.000  0.000  0.000  0.000  0.000  0.000  0.000  0.000  0.000
       0.000  0.985  0.000  0.000  0.000  0.000  0.000  0.000  0.000  0.000
       0.000  0.000  0.985  0.000  0.000  0.000  0.000  0.000  0.000  0.000
       0.000  0.000  0.000  0.949  0.000  0.000  0.000  0.000  0.000  0.000
       0.000  0.000  0.000  0.000  0.988  0.000  0.000  0.000  0.000  0.000
       0.000  0.000  0.000  0.000  0.000  0.915  0.000  0.000  0.000  0.000
       0.000  0.000  0.000  0.000  0.000  0.000  0.975  0.000  0.000  0.000
       0.000  0.000  0.000  0.000  0.000  0.000  0.000  0.975  0.000  0.000
       0.000  0.000  0.000  0.000  0.000  0.000  0.000  0.000  0.318  0.000
       0.000  0.000  0.000  0.000  0.000  0.000  0.000  0.000  0.000  0.980
     Atomic magnetic moment mx, my, mz =    -0.000000    0.000000    0.706872
     ------------------------ ATOM   15 ------------------------
     Tr[ns( 15)] (up, down, total) =   4.16236  4.86852  9.03088
     eigenvalues:
       0.317  0.915  0.949  0.961  0.975  0.975  0.980  0.985  0.985  0.988
     eigenvectors (columns):
      -0.000  0.363  0.000 -0.000  0.000  0.000  0.000 -0.000  0.000 -0.000
       0.000 -0.000  0.000  0.000  0.000  0.000  0.000  0.000  0.000  0.000
       0.000  0.000  0.000 -0.000  0.844  0.537  0.000 -0.000 -0.000  0.000
       0.994  0.000  0.000 -0.000 -0.000 -0.000 -0.000 -0.000 -0.000  0.000
       0.000  0.000 -0.000 -0.000  0.000  0.000 -0.707 -0.000 -0.000  0.000
       0.000  0.000  0.000 -0.000  0.000 -0.000  0.000 -0.000  0.000 -0.000
[...]
       0.000  0.982  0.000  0.000  0.000  0.000  0.000  0.000  0.000  0.000
       0.000  0.000  0.982  0.000  0.000  0.000  0.000  0.000  0.000  0.000
       0.000  0.000  0.000  0.908  0.000  0.000  0.000  0.000  0.000  0.000
       0.000  0.000  0.000  0.000  0.986  0.000  0.000  0.000  0.000  0.000
       0.000  0.000  0.000  0.000  0.000  0.935  0.000  0.000  0.000  0.000
       0.000  0.000  0.000  0.000  0.000  0.000  0.980  0.000  0.000  0.000
       0.000  0.000  0.000  0.000  0.000  0.000  0.000  0.980  0.000  0.000
       0.000  0.000  0.000  0.000  0.000  0.000  0.000  0.000  0.637  0.000
       0.000  0.000  0.000  0.000  0.000  0.000  0.000  0.000  0.000  0.985
     Atomic magnetic moment mx, my, mz =    -0.000000    0.000000    0.289847
     ------------------------ ATOM   24 ------------------------
     Tr[ns( 24)] (up, down, total) =   4.51529  4.80656  9.32185
     eigenvalues:
       0.635  0.908  0.935  0.947  0.980  0.980  0.982  0.982  0.985  0.986
     eigenvectors (columns):
      -0.000 -0.000 -0.125 -0.000  0.000 -0.000 -0.000 -0.000 -0.000  0.000
       0.000  0.000  0.000 -0.000  0.000 -0.000  0.000  0.000  0.000 -0.000
       0.000  0.000  0.000  0.000  0.012 -1.000 -0.000 -0.000  0.000 -0.000
       0.077  0.000 -0.000 -0.000 -0.000  0.000 -0.000  0.000 -0.000  0.000
      -0.000  0.000 -0.000  0.000  0.000 -0.000 -0.000 -0.000 -0.965 -0.000
       0.000 -0.000 -0.000 -0.000 -0.000  0.000  0.000  0.000  0.000 -0.000
       0.000  0.000 -0.000 -0.000  0.000  0.000  0.925  0.007 -0.000 -0.000
       0.000  0.000 -0.000 -0.000  0.000 -0.000  0.050  0.989 -0.000 -0.000
      -0.000  0.000  0.000 -0.000  0.000 -0.000 -0.000 -0.000  0.000  0.000
      -0.000 -0.000 -0.000 -0.000 -0.000 -0.000  0.000  0.000 -0.000  1.000
     occupations, | n_(i1, i2)^(sigma1, sigma2) |:
       0.935  0.000  0.000  0.000  0.000  0.000  0.000  0.000  0.000  0.000
       0.000  0.980  0.000  0.000  0.000  0.000  0.000  0.000  0.000  0.000
       0.000  0.000  0.980  0.000  0.000  0.000  0.000  0.000  0.000  0.000
       0.000  0.000  0.000  0.635  0.000  0.000  0.000  0.000  0.000  0.000
       0.000  0.000  0.000  0.000  0.985  0.000  0.000  0.000  0.000  0.000
       0.000  0.000  0.000  0.000  0.000  0.947  0.000  0.000  0.000  0.000
       0.000  0.000  0.000  0.000  0.000  0.000  0.982  0.000  0.000  0.000
       0.000  0.000  0.000  0.000  0.000  0.000  0.000  0.982  0.000  0.000
       0.000  0.000  0.000  0.000  0.000  0.000  0.000  0.000  0.908  0.000
       0.000  0.000  0.000  0.000  0.000  0.000  0.000  0.000  0.000  0.986
     Atomic magnetic moment mx, my, mz =     0.000000   -0.000000   -0.291277

     Number of occupied Hubbard levels =   74.5772

     negative rho (up, down):  6.950E-01 0.000E+00
 --- in v_hubbard ---
Hub. E (dc, noflip, flip, total)   56.9366  57.3236  -0.0000   0.3870
 -------

     total cpu time spent up to now is     2995.5 secs

     total energy              =   -6556.90611066 Ry
     estimated scf accuracy    <       0.00688304 Ry

     total magnetization       =    -0.00     0.00    -0.01 Bohr mag/cell
     absolute magnetization    =     3.23 Bohr mag/cell

     iteration # 22     ecut=    90.00 Ry     beta= 0.10
     Davidson diagonalization with overlap

---- Real-time Memory Report at c_bands before calling an iterative solver
          3709 MiB given to the printing process from OS
             0 MiB allocation reported by mallinfo(arena+hblkhd)
          9062 MiB available memory on the node where the printing process lives
------------------
     ethr =  1.39E-06,  avg # of iterations =  1.0

     ================= HUBBARD OCCUPATIONS ================
     ------------------------ ATOM   14 ------------------------
     Tr[ns( 14)] (up, down, total) =   4.80478  4.51792  9.32270
     eigenvalues:
       0.638  0.907  0.935  0.947  0.980  0.980  0.982  0.982  0.984  0.986
     eigenvectors (columns):
      -0.000  0.000  0.000  0.100 -0.000  0.000 -0.000  0.000  0.000 -0.000
      -0.000 -0.000  0.000 -0.000  0.000 -0.000 -0.000  0.000 -0.000  0.000
      -0.000 -0.000 -0.000 -0.000 -0.000 -0.000 -0.017  1.000 -0.000  0.000
      -0.000 -0.819  0.000  0.000 -0.000  0.000  0.000 -0.000  0.000 -0.000
      -0.000 -0.000 -0.000  0.000  0.000 -0.000 -0.000  0.000 -0.000 -0.672
      -0.000  0.000  0.000  0.000  0.000 -0.000  0.000  0.000 -0.000  0.000
       0.000 -0.000  0.000  0.000  0.976 -0.002  0.000  0.000 -0.000  0.000
      -0.000 -0.000  0.000  0.000  0.016 -0.997  0.000 -0.000 -0.000  0.000
       0.000  0.000  0.000 -0.000 -0.000  0.000 -0.000 -0.000  0.000  0.000
      -0.000 -0.000  0.000  0.000  0.000 -0.000  0.000  0.000  1.000 -0.000
     occupations, | n_(i1, i2)^(sigma1, sigma2) |:
       0.947  0.000  0.000  0.000  0.000  0.000  0.000  0.000  0.000  0.000
       0.000  0.982  0.000  0.000  0.000  0.000  0.000  0.000  0.000  0.000
       0.000  0.000  0.982  0.000  0.000  0.000  0.000  0.000  0.000  0.000
       0.000  0.000  0.000  0.907  0.000  0.000  0.000  0.000  0.000  0.000
       0.000  0.000  0.000  0.000  0.986  0.000  0.000  0.000  0.000  0.000
       0.000  0.000  0.000  0.000  0.000  0.935  0.000  0.000  0.000  0.000
       0.000  0.000  0.000  0.000  0.000  0.000  0.980  0.000  0.000  0.000
       0.000  0.000  0.000  0.000  0.000  0.000  0.000  0.980  0.000  0.000
       0.000  0.000  0.000  0.000  0.000  0.000  0.000  0.000  0.638  0.000
       0.000  0.000  0.000  0.000  0.000  0.000  0.000  0.000  0.000  0.984
     Atomic magnetic moment mx, my, mz =    -0.000000    0.000000    0.286867
     ------------------------ ATOM   15 ------------------------
     Tr[ns( 15)] (up, down, total) =   4.51845  4.80497  9.32343
     eigenvalues:
       0.639  0.907  0.935  0.947  0.980  0.980  0.982  0.982  0.984  0.986
     eigenvectors (columns):
      -0.000 -0.000  0.046  0.000 -0.000 -0.000 -0.000 -0.000  0.000  0.000
       0.000 -0.000 -0.000  0.000  0.000 -0.000  0.000 -0.000 -0.000  0.000
       0.000 -0.000 -0.000  0.000 -0.011 -1.000  0.000  0.000 -0.000  0.000
       0.227 -0.000  0.000 -0.000  0.000  0.000 -0.000  0.000 -0.000  0.000
       0.000 -0.000 -0.000  0.000 -0.000 -0.000 -0.000 -0.000  0.990 -0.000
       0.000 -0.000  0.000 -0.000 -0.000 -0.000  0.000 -0.000  0.000  0.000
       0.000  0.000 -0.000 -0.000 -0.000  0.000  0.835 -0.018 -0.000  0.000
      -0.000  0.000 -0.000 -0.000 -0.000 -0.000  0.112 -0.973 -0.000  0.000
       0.000  0.000  0.000 -0.000 -0.000 -0.000 -0.000  0.000  0.000 -0.000
       0.000 -0.000 -0.000 -0.000 -0.000 -0.000  0.000 -0.000 -0.000 -1.000
     occupations, | n_(i1, i2)^(sigma1, sigma2) |:
       0.935  0.000  0.000  0.000  0.000  0.000  0.000  0.000  0.000  0.000
       0.000  0.980  0.000  0.000  0.000  0.000  0.000  0.000  0.000  0.000
       0.000  0.000  0.980  0.000  0.000  0.000  0.000  0.000  0.000  0.000
       0.000  0.000  0.000  0.639  0.000  0.000  0.000  0.000  0.000  0.000
       0.000  0.000  0.000  0.000  0.984  0.000  0.000  0.000  0.000  0.000
       0.000  0.000  0.000  0.000  0.000  0.947  0.000  0.000  0.000  0.000
       0.000  0.000  0.000  0.000  0.000  0.000  0.982  0.000  0.000  0.000
       0.000  0.000  0.000  0.000  0.000  0.000  0.000  0.982  0.000  0.000
       0.000  0.000  0.000  0.000  0.000  0.000  0.000  0.000  0.907  0.000
       0.000  0.000  0.000  0.000  0.000  0.000  0.000  0.000  0.000  0.986
     Atomic magnetic moment mx, my, mz =     0.000000   -0.000000   -0.286516
     ------------------------ ATOM   17 ------------------------
     Tr[ns( 17)] (up, down, total) =   4.51846  4.80494  9.32340
     eigenvalues:
       0.639  0.907  0.935  0.947  0.980  0.980  0.982  0.982  0.984  0.986
     eigenvectors (columns):
      -0.000 -0.000  0.050  0.000 -0.000 -0.000 -0.000 -0.000  0.000 -0.000
       0.000 -0.000 -0.000 -0.000  0.000 -0.000  0.000  0.000  0.000 -0.000
       0.000  0.000 -0.000  0.000 -0.097 -0.995 -0.000 -0.000  0.000  0.000
       0.974 -0.000  0.000  0.000  0.000  0.000 -0.000  0.000  0.000 -0.000
      -0.000  0.000  0.000  0.000 -0.000 -0.000  0.000 -0.000 -0.999 -0.000
      -0.000 -0.000 -0.000 -0.000  0.000 -0.000  0.000 -0.000  0.000  0.000
       0.000  0.000  0.000 -0.000  0.000 -0.000  0.558 -0.072  0.000  0.000
      -0.000 -0.000  0.000  0.000 -0.000  0.000  0.335 -0.892  0.000  0.000
      -0.000  0.000 -0.000 -0.000  0.000 -0.000 -0.000  0.000  0.000 -0.000
      -0.000 -0.000  0.000 -0.000 -0.000 -0.000  0.000 -0.000  0.000 -1.000
     occupations, | n_(i1, i2)^(sigma1, sigma2) |:
       0.935  0.000  0.000  0.000  0.000  0.000  0.000  0.000  0.000  0.000
       0.000  0.980  0.000  0.000  0.000  0.000  0.000  0.000  0.000  0.000
       0.000  0.000  0.980  0.000  0.000  0.000  0.000  0.000  0.000  0.000
       0.000  0.000  0.000  0.639  0.000  0.000  0.000  0.000  0.000  0.000
       0.000  0.000  0.000  0.000  0.984  0.000  0.000  0.000  0.000  0.000
       0.000  0.000  0.000  0.000  0.000  0.947  0.000  0.000  0.000  0.000
       0.000  0.000  0.000  0.000  0.000  0.000  0.982  0.000  0.000  0.000
       0.000  0.000  0.000  0.000  0.000  0.000  0.000  0.982  0.000  0.000
       0.000  0.000  0.000  0.000  0.000  0.000  0.000  0.000  0.907  0.000
       0.000  0.000  0.000  0.000  0.000  0.000  0.000  0.000  0.000  0.986
     Atomic magnetic moment mx, my, mz =     0.000000   -0.000000   -0.286481
     ------------------------ ATOM   18 ------------------------
     Tr[ns( 18)] (up, down, total) =   4.80478  4.51789  9.32267
     eigenvalues:
       0.638  0.907  0.935  0.947  0.980  0.980  0.982  0.982  0.984  0.986
     eigenvectors (columns):
       0.000  0.000 -0.000  0.228 -0.000 -0.000 -0.000 -0.000 -0.000 -0.000
       0.000 -0.000 -0.000 -0.000  0.000  0.000 -0.000 -0.000 -0.000 -0.000
      -0.000 -0.000  0.000 -0.000  0.000 -0.000 -0.349 -0.937 -0.000 -0.000
      -0.000 -0.410 -0.000  0.000 -0.000  0.000  0.000  0.000  0.000  0.000
      -0.000 -0.000  0.000  0.000 -0.000  0.000 -0.000 -0.000 -0.000  0.822
      -0.000  0.000 -0.000 -0.000 -0.000  0.000  0.000  0.000 -0.000 -0.000
       0.000  0.000 -0.000 -0.000 -0.853  0.015 -0.000 -0.000 -0.000 -0.000
       0.000 -0.000  0.000 -0.000 -0.100  0.976 -0.000 -0.000 -0.000 -0.000
       0.000 -0.000 -0.000 -0.000  0.000 -0.000 -0.000 -0.000  0.000  0.000
      -0.000  0.000 -0.000 -0.000 -0.000  0.000  0.000 -0.000  1.000  0.000
     occupations, | n_(i1, i2)^(sigma1, sigma2) |:
       0.947  0.000  0.000  0.000  0.000  0.000  0.000  0.000  0.000  0.000
       0.000  0.982  0.000  0.000  0.000  0.000  0.000  0.000  0.000  0.000
       0.000  0.000  0.982  0.000  0.000  0.000  0.000  0.000  0.000  0.000
       0.000  0.000  0.000  0.907  0.000  0.000  0.000  0.000  0.000  0.000
       0.000  0.000  0.000  0.000  0.986  0.000  0.000  0.000  0.000  0.000
       0.000  0.000  0.000  0.000  0.000  0.935  0.000  0.000  0.000  0.000
       0.000  0.000  0.000  0.000  0.000  0.000  0.980  0.000  0.000  0.000
       0.000  0.000  0.000  0.000  0.000  0.000  0.000  0.980  0.000  0.000
       0.000  0.000  0.000  0.000  0.000  0.000  0.000  0.000  0.638  0.000
       0.000  0.000  0.000  0.000  0.000  0.000  0.000  0.000  0.000  0.984
     Atomic magnetic moment mx, my, mz =    -0.000000    0.000000    0.286882
     ------------------------ ATOM   20 ------------------------
     Tr[ns( 20)] (up, down, total) =   4.51851  4.80496  9.32346
     eigenvalues:
       0.639  0.907  0.935  0.947  0.980  0.980  0.982  0.982  0.984  0.986
     eigenvectors (columns):
      -0.000 -0.000  0.059 -0.000  0.000 -0.000  0.000 -0.000 -0.000  0.000
       0.000 -0.000 -0.000  0.000  0.000 -0.000 -0.000  0.000 -0.000  0.000
       0.000 -0.000 -0.000  0.000  0.229 -0.973  0.000  0.000 -0.000 -0.000
       0.358  0.000  0.000 -0.000 -0.000  0.000 -0.000  0.000  0.000  0.000
      -0.000 -0.000 -0.000  0.000  0.000 -0.000  0.000  0.000  0.793 -0.000
       0.000  0.000 -0.000 -0.000 -0.000  0.000  0.000  0.000  0.000  0.000
      -0.000 -0.000 -0.000 -0.000 -0.000 -0.000  0.577  0.067 -0.000  0.000
      -0.000 -0.000 -0.000 -0.000  0.000  0.000  0.317  0.900 -0.000  0.000
       0.000 -0.000  0.000 -0.000 -0.000  0.000 -0.000 -0.000  0.000 -0.000
       0.000  0.000 -0.000 -0.000  0.000  0.000  0.000  0.000 -0.000 -1.000
     occupations, | n_(i1, i2)^(sigma1, sigma2) |:
       0.935  0.000  0.000  0.000  0.000  0.000  0.000  0.000  0.000  0.000
       0.000  0.980  0.000  0.000  0.000  0.000  0.000  0.000  0.000  0.000
       0.000  0.000  0.980  0.000  0.000  0.000  0.000  0.000  0.000  0.000
       0.000  0.000  0.000  0.639  0.000  0.000  0.000  0.000  0.000  0.000
       0.000  0.000  0.000  0.000  0.984  0.000  0.000  0.000  0.000  0.000
       0.000  0.000  0.000  0.000  0.000  0.947  0.000  0.000  0.000  0.000
       0.000  0.000  0.000  0.000  0.000  0.000  0.982  0.000  0.000  0.000
       0.000  0.000  0.000  0.000  0.000  0.000  0.000  0.982  0.000  0.000
       0.000  0.000  0.000  0.000  0.000  0.000  0.000  0.000  0.907  0.000
       0.000  0.000  0.000  0.000  0.000  0.000  0.000  0.000  0.000  0.986
     Atomic magnetic moment mx, my, mz =     0.000000   -0.000000   -0.286448
     ------------------------ ATOM   21 ------------------------
     Tr[ns( 21)] (up, down, total) =   4.80479  4.51793  9.32271
     eigenvalues:
       0.638  0.907  0.935  0.947  0.980  0.980  0.982  0.982  0.984  0.986
     eigenvectors (columns):
       0.000 -0.000  0.000  0.182  0.000 -0.000 -0.000  0.000 -0.000 -0.000
      -0.000  0.000  0.000 -0.000 -0.000  0.000 -0.000  0.000 -0.000 -0.000
      -0.000  0.000  0.000 -0.000 -0.000  0.000 -0.464  0.886 -0.000 -0.000
       0.000  0.405 -0.000  0.000 -0.000  0.000  0.000 -0.000  0.000  0.000
      -0.000 -0.000  0.000 -0.000 -0.000  0.000 -0.000  0.000 -0.000  0.616
       0.000 -0.000  0.000 -0.000 -0.000 -0.000 -0.000  0.000  0.000  0.000
      -0.000 -0.000  0.000  0.000 -0.545 -0.076 -0.000 -0.000  0.000  0.000
       0.000  0.000 -0.000  0.000 -0.346 -0.887 -0.000 -0.000  0.000 -0.000
      -0.000  0.000  0.000 -0.000  0.000  0.000  0.000  0.000 -0.000 -0.000
       0.000 -0.000  0.000  0.000 -0.000 -0.000 -0.000 -0.000 -1.000 -0.000
     occupations, | n_(i1, i2)^(sigma1, sigma2) |:
       0.947  0.000  0.000  0.000  0.000  0.000  0.000  0.000  0.000  0.000
       0.000  0.982  0.000  0.000  0.000  0.000  0.000  0.000  0.000  0.000
       0.000  0.000  0.982  0.000  0.000  0.000  0.000  0.000  0.000  0.000
       0.000  0.000  0.000  0.907  0.000  0.000  0.000  0.000  0.000  0.000
       0.000  0.000  0.000  0.000  0.986  0.000  0.000  0.000  0.000  0.000
       0.000  0.000  0.000  0.000  0.000  0.935  0.000  0.000  0.000  0.000
       0.000  0.000  0.000  0.000  0.000  0.000  0.980  0.000  0.000  0.000
       0.000  0.000  0.000  0.000  0.000  0.000  0.000  0.980  0.000  0.000
       0.000  0.000  0.000  0.000  0.000  0.000  0.000  0.000  0.638  0.000
       0.000  0.000  0.000  0.000  0.000  0.000  0.000  0.000  0.000  0.984
     Atomic magnetic moment mx, my, mz =    -0.000000    0.000000    0.286860
     ------------------------ ATOM   23 ------------------------
     Tr[ns( 23)] (up, down, total) =   4.80477  4.51799  9.32276
     eigenvalues:
       0.638  0.907  0.935  0.947  0.980  0.980  0.982  0.982  0.984  0.986
     eigenvectors (columns):
       0.000 -0.000  0.000  0.222 -0.000 -0.000 -0.000 -0.000  0.000  0.000
       0.000  0.000 -0.000 -0.000 -0.000 -0.000  0.000 -0.000  0.000 -0.000
      -0.000  0.000  0.000 -0.000 -0.000 -0.000 -0.995 -0.098  0.000 -0.000
       0.000  0.361 -0.000  0.000 -0.000 -0.000  0.000  0.000 -0.000 -0.000
      -0.000  0.000  0.000  0.000  0.000 -0.000 -0.000 -0.000  0.000  0.890
       0.000 -0.000  0.000  0.000  0.000 -0.000 -0.000 -0.000  0.000  0.000
       0.000 -0.000 -0.000 -0.000  0.006 -0.939  0.000  0.000  0.000  0.000
       0.000  0.000 -0.000 -0.000  0.991 -0.040 -0.000 -0.000  0.000 -0.000
      -0.000 -0.000  0.000 -0.000 -0.000  0.000  0.000 -0.000 -0.000  0.000
       0.000  0.000  0.000 -0.000  0.000 -0.000 -0.000 -0.000 -1.000  0.000
     occupations, | n_(i1, i2)^(sigma1, sigma2) |:
       0.947  0.000  0.000  0.000  0.000  0.000  0.000  0.000  0.000  0.000
       0.000  0.982  0.000  0.000  0.000  0.000  0.000  0.000  0.000  0.000
       0.000  0.000  0.982  0.000  0.000  0.000  0.000  0.000  0.000  0.000
       0.000  0.000  0.000  0.907  0.000  0.000  0.000  0.000  0.000  0.000
       0.000  0.000  0.000  0.000  0.986  0.000  0.000  0.000  0.000  0.000
       0.000  0.000  0.000  0.000  0.000  0.935  0.000  0.000  0.000  0.000
       0.000  0.000  0.000  0.000  0.000  0.000  0.980  0.000  0.000  0.000
       0.000  0.000  0.000  0.000  0.000  0.000  0.000  0.980  0.000  0.000
       0.000  0.000  0.000  0.000  0.000  0.000  0.000  0.000  0.638  0.000
       0.000  0.000  0.000  0.000  0.000  0.000  0.000  0.000  0.000  0.984
     Atomic magnetic moment mx, my, mz =    -0.000000    0.000000    0.286780
     ------------------------ ATOM   24 ------------------------
     Tr[ns( 24)] (up, down, total) =   4.51849  4.80495  9.32344
     eigenvalues:
       0.639  0.907  0.935  0.947  0.980  0.980  0.982  0.982  0.984  0.986
     eigenvectors (columns):
       0.000 -0.000  0.084  0.000  0.000  0.000 -0.000  0.000  0.000  0.000
      -0.000 -0.000 -0.000  0.000 -0.000  0.000 -0.000 -0.000  0.000 -0.000
      -0.000  0.000 -0.000 -0.000  1.000  0.007  0.000  0.000  0.000 -0.000
      -0.964  0.000  0.000 -0.000 -0.000 -0.000  0.000 -0.000  0.000  0.000
      -0.000  0.000  0.000 -0.000  0.000  0.000 -0.000 -0.000 -0.975  0.000
       0.000  0.000  0.000  0.000  0.000 -0.000 -0.000 -0.000  0.000 -0.000
      -0.000 -0.000  0.000  0.000 -0.000  0.000 -0.031 -0.741  0.000 -0.000
       0.000 -0.000  0.000 -0.000  0.000  0.000 -0.952 -0.182  0.000 -0.000
      -0.000 -0.000 -0.000  0.000 -0.000 -0.000  0.000  0.000 -0.000  0.000
       0.000  0.000  0.000  0.000  0.000  0.000 -0.000 -0.000  0.000  1.000
     occupations, | n_(i1, i2)^(sigma1, sigma2) |:
       0.935  0.000  0.000  0.000  0.000  0.000  0.000  0.000  0.000  0.000
       0.000  0.980  0.000  0.000  0.000  0.000  0.000  0.000  0.000  0.000
       0.000  0.000  0.980  0.000  0.000  0.000  0.000  0.000  0.000  0.000
       0.000  0.000  0.000  0.639  0.000  0.000  0.000  0.000  0.000  0.000
       0.000  0.000  0.000  0.000  0.984  0.000  0.000  0.000  0.000  0.000
       0.000  0.000  0.000  0.000  0.000  0.947  0.000  0.000  0.000  0.000
       0.000  0.000  0.000  0.000  0.000  0.000  0.982  0.000  0.000  0.000
       0.000  0.000  0.000  0.000  0.000  0.000  0.000  0.982  0.000  0.000
       0.000  0.000  0.000  0.000  0.000  0.000  0.000  0.000  0.907  0.000
       0.000  0.000  0.000  0.000  0.000  0.000  0.000  0.000  0.000  0.986
     Atomic magnetic moment mx, my, mz =     0.000000   -0.000000   -0.286463

     Number of occupied Hubbard levels =   74.5846

     negative rho (up, down):  6.947E-01 0.000E+00
 --- in v_hubbard ---
Hub. E (dc, noflip, flip, total)   56.9804  57.3685  -0.0000   0.3881
 -------

     total cpu time spent up to now is     3119.7 secs

     total energy              =   -6556.90628775 Ry
     estimated scf accuracy    <       0.00365960 Ry

     total magnetization       =    -0.00    -0.00    -0.00 Bohr mag/cell
     absolute magnetization    =     3.19 Bohr mag/cell

     iteration # 23     ecut=    90.00 Ry     beta= 0.10
     Davidson diagonalization with overlap

---- Real-time Memory Report at c_bands before calling an iterative solver
          3709 MiB given to the printing process from OS
             0 MiB allocation reported by mallinfo(arena+hblkhd)
          9065 MiB available memory on the node where the printing process lives
------------------
     ethr =  7.38E-07,  avg # of iterations =  2.0
[mpiexec@DESKTOP-9GB854E] Sending Ctrl-C to processes as requested
[mpiexec@DESKTOP-9GB854E] Press Ctrl-C again to force abort
