
     Program PWSCF v.7.2 starts on  2Jan2024 at 22:15:56 

     This program is part of the open-source Quantum ESPRESSO suite
     for quantum simulation of materials; please cite
         "P. Giannozzi et al., J. Phys.:Condens. Matter 21 395502 (2009);
         "P. Giannozzi et al., J. Phys.:Condens. Matter 29 465901 (2017);
         "P. Giannozzi et al., J. Chem. Phys. 152 154105 (2020);
          URL http://www.quantum-espresso.org", 
     in publications or presentations arising from this work. More details at
     http://www.quantum-espresso.org/quote

     Parallel version (MPI), running on     4 processors

     MPI processes distributed on     1 nodes
     15009 MiB available memory on the printing compute node when the environment starts
 
     Waiting for input...
     Reading input from standard input
Warning: card &IONS ignored
Warning: card ION_DYNAMICS = 'BFGS' ignored
Warning: card / ignored
Warning: card &CELL ignored
Warning: card / ignored

     Current dimensions of program PWSCF are:
     Max number of different atomic species (ntypx) = 10
     Max number of k-points (npk) =  40000
     Max angular momentum in pseudopotentials (lmaxx) =  4

     Atomic positions and unit cell read from directory:
     ./YBCO6/YBCO6.save/
 
     Found identity + (  0.5000  0.5000  0.0000) symmetry
     This is a supercell, fractional translations are disabled
 
     R & G space division:  proc/nbgrp/npool/nimage =       4
     Subspace diagonalization in iterative solution of the eigenvalue problem:
     one sub-group per band group will be used
     custom distributed-memory algorithm (size of sub-group:  2*  2 procs)

 
     Parallelization info
     --------------------
     sticks:   dense  smooth     PW     G-vecs:    dense   smooth      PW
     Min        2210     984    256               238514    70654    9367
     Max        2211     985    260               238519    70656    9368
     Sum        8841    3937   1033               954065   282619   37471
 
     Using Slab Decomposition
 


     bravais-lattice index     =            6
     lattice parameter (alat)  =      14.3459  a.u.
     unit-cell volume          =    4502.1906 (a.u.)^3
     number of atoms/cell      =           48
     number of atomic types    =            6
     number of electrons       =       496.00
     number of Kohn-Sham states=          372
     kinetic-energy cutoff     =      60.0000  Ry
     charge density cutoff     =     540.0000  Ry
     Exchange-correlation= SLA  PZ   NOGX NOGC
                           (   1   1   0   0   0   0   0)
     Hubbard projectors: ortho-atomic
     Hubbard parameters of DFT+U (Dudarev formulation) in eV:
     U(Cu1-3d) =  2.5000
     U(Cu2-3d) =  2.5000

     Internal variables: lda_plus_u = T, lda_plus_u_kind = 0

     celldm(1)=  14.345919  celldm(2)=   0.000000  celldm(3)=   1.524891
     celldm(4)=   0.000000  celldm(5)=   0.000000  celldm(6)=   0.000000

     crystal axes: (cart. coord. in units of alat)
               a(1) = (   1.000000   0.000000   0.000000 )  
               a(2) = (   0.000000   1.000000   0.000000 )  
               a(3) = (   0.000000   0.000000   1.524891 )  

     reciprocal axes: (cart. coord. in units 2 pi/alat)
               b(1) = (  1.000000  0.000000  0.000000 )  
               b(2) = (  0.000000  1.000000  0.000000 )  
               b(3) = (  0.000000  0.000000  0.655785 )  


     PseudoPot. # 1 for Y  read from file:
     ~/q-e/pseudo/gbrv_lda/y_lda_v1.4.uspp.F.UPF
     MD5 check sum: Not computed, couldn't open file
     Pseudo is Ultrasoft + core correction, Zval = 11.0
     Generated by new atomic code, or converted to UPF format
     Using radial grid of  885 points,  6 beta functions with: 
                l(1) =   0
                l(2) =   0
                l(3) =   1
                l(4) =   1
                l(5) =   2
                l(6) =   2
     Q(r) pseudized with  8 coefficients,  rinner =    1.200   1.200   1.200
                                                       1.200   1.200

     PseudoPot. # 2 for Ba read from file:
     ~/q-e/pseudo/gbrv_lda/ba_lda_v1.uspp.F.UPF
     MD5 check sum: Not computed, couldn't open file
     Pseudo is Ultrasoft + core correction, Zval = 10.0
     Generated by new atomic code, or converted to UPF format
     Using radial grid of  907 points,  7 beta functions with: 
                l(1) =   0
                l(2) =   0
                l(3) =   1
                l(4) =   1
                l(5) =   2
                l(6) =   2
                l(7) =   3
     Q(r) pseudized with  6 coefficients,  rinner =    1.700   1.700   1.700
                                                       1.700   1.700   1.700
                                                       1.700

     PseudoPot. # 3 for Cu read from file:
     ~/q-e/pseudo/gbrv_lda/cu_lda_v1.2.uspp.F.UPF
     MD5 check sum: Not computed, couldn't open file
     Pseudo is Ultrasoft + core correction, Zval = 19.0
     Generated by new atomic code, or converted to UPF format
     Using radial grid of  867 points,  6 beta functions with: 
                l(1) =   0
                l(2) =   0
                l(3) =   1
                l(4) =   1
                l(5) =   2
                l(6) =   2
     Q(r) pseudized with  8 coefficients,  rinner =    1.150   1.150   1.150
                                                       1.150   1.150

     PseudoPot. # 4 for Cu read from file:
     ~/q-e/pseudo/gbrv_lda/cu_lda_v1.2.uspp.F.UPF
     MD5 check sum: Not computed, couldn't open file
     Pseudo is Ultrasoft + core correction, Zval = 19.0
     Generated by new atomic code, or converted to UPF format
     Using radial grid of  867 points,  6 beta functions with: 
                l(1) =   0
                l(2) =   0
                l(3) =   1
                l(4) =   1
                l(5) =   2
                l(6) =   2
     Q(r) pseudized with  8 coefficients,  rinner =    1.150   1.150   1.150
                                                       1.150   1.150

     PseudoPot. # 5 for Cu read from file:
     ~/q-e/pseudo/gbrv_lda/cu_lda_v1.2.uspp.F.UPF
     MD5 check sum: Not computed, couldn't open file
     Pseudo is Ultrasoft + core correction, Zval = 19.0
     Generated by new atomic code, or converted to UPF format
     Using radial grid of  867 points,  6 beta functions with: 
                l(1) =   0
                l(2) =   0
                l(3) =   1
                l(4) =   1
                l(5) =   2
                l(6) =   2
     Q(r) pseudized with  8 coefficients,  rinner =    1.150   1.150   1.150
                                                       1.150   1.150

     PseudoPot. # 6 for O  read from file:
     ~/q-e/pseudo/gbrv_lda/o_lda_v1.2.uspp.F.UPF
     MD5 check sum: Not computed, couldn't open file
     Pseudo is Ultrasoft + core correction, Zval =  6.0
     Generated by new atomic code, or converted to UPF format
     Using radial grid of  737 points,  5 beta functions with: 
                l(1) =   0
                l(2) =   0
                l(3) =   1
                l(4) =   1
                l(5) =   2
     Q(r) pseudized with  8 coefficients,  rinner =    0.900   0.900   0.900
                                                       0.900   0.900

     atomic species   valence    mass     pseudopotential
     Y                11.00    88.90584     Y ( 1.00)
     Ba               10.00   137.32700     Ba( 1.00)
     Cu               19.00    63.54600     Cu( 1.00)
     Cu1              19.00    63.54600     Cu( 1.00)
     Cu2              19.00    63.54600     Cu( 1.00)
     O                 6.00    15.99900     O ( 1.00)

     Starting magnetic structure 
     atomic species   magnetization
     Y               0.000
     Ba              0.000
     Cu              0.000
     Cu1             0.100
     Cu2            -0.100
     O               0.000

      8 Sym. Ops. (no inversion) found


                                    s                        frac. trans.

      isym =  1     identity                                     

 cryst.   s( 1) = (     1          0          0      )
                  (     0          1          0      )
                  (     0          0          1      )

 cart.    s( 1) = (  1.0000000  0.0000000  0.0000000 )
                  (  0.0000000  1.0000000  0.0000000 )
                  (  0.0000000  0.0000000  1.0000000 )


      isym =  2     180 deg rotation - cart. axis [0,0,1]        

 cryst.   s( 2) = (    -1          0          0      )
                  (     0         -1          0      )
                  (     0          0          1      )

 cart.    s( 2) = ( -1.0000000  0.0000000  0.0000000 )
                  (  0.0000000 -1.0000000  0.0000000 )
                  (  0.0000000  0.0000000  1.0000000 )


      isym =  3      90 deg rotation - cart. axis [0,0,-1]       

 cryst.   s( 3) = (     0         -1          0      )
                  (     1          0          0      )
                  (     0          0          1      )

 cart.    s( 3) = (  0.0000000  1.0000000  0.0000000 )
                  ( -1.0000000  0.0000000  0.0000000 )
                  (  0.0000000  0.0000000  1.0000000 )


      isym =  4      90 deg rotation - cart. axis [0,0,1]        

 cryst.   s( 4) = (     0          1          0      )
                  (    -1          0          0      )
                  (     0          0          1      )

 cart.    s( 4) = (  0.0000000 -1.0000000  0.0000000 )
                  (  1.0000000  0.0000000  0.0000000 )
                  (  0.0000000  0.0000000  1.0000000 )


      isym =  5     inv. 180 deg rotation - cart. axis [0,1,0]   

 cryst.   s( 5) = (     1          0          0      )
                  (     0         -1          0      )
                  (     0          0          1      )

 cart.    s( 5) = (  1.0000000  0.0000000  0.0000000 )
                  (  0.0000000 -1.0000000  0.0000000 )
                  (  0.0000000  0.0000000  1.0000000 )


      isym =  6     inv. 180 deg rotation - cart. axis [1,0,0]   

 cryst.   s( 6) = (    -1          0          0      )
                  (     0          1          0      )
                  (     0          0          1      )

 cart.    s( 6) = ( -1.0000000  0.0000000  0.0000000 )
                  (  0.0000000  1.0000000  0.0000000 )
                  (  0.0000000  0.0000000  1.0000000 )


      isym =  7     inv. 180 deg rotation - cart. axis [1,1,0]   

 cryst.   s( 7) = (     0         -1          0      )
                  (    -1          0          0      )
                  (     0          0          1      )

 cart.    s( 7) = (  0.0000000 -1.0000000  0.0000000 )
                  ( -1.0000000  0.0000000  0.0000000 )
                  (  0.0000000  0.0000000  1.0000000 )


      isym =  8     inv. 180 deg rotation - cart. axis [1,-1,0]  

 cryst.   s( 8) = (     0          1          0      )
                  (     1          0          0      )
                  (     0          0          1      )

 cart.    s( 8) = (  0.0000000  1.0000000  0.0000000 )
                  (  1.0000000  0.0000000  0.0000000 )
                  (  0.0000000  0.0000000  1.0000000 )


     point group C_4v (4mm) 
     there are  5 classes
     the character table:

       E     2C4   C2    2s_v  2s_d 
A_1    1.00  1.00  1.00  1.00  1.00
A_2    1.00  1.00  1.00 -1.00 -1.00
B_1    1.00 -1.00  1.00  1.00 -1.00
B_2    1.00 -1.00  1.00 -1.00  1.00
E      2.00  0.00 -2.00  0.00  0.00

     the symmetry operations in each class and the name of the first element:

     E        1
          identity                                               
     2C4      3    4
           90 deg rotation - cart. axis [0,0,-1]                 
     C2       2
          180 deg rotation - cart. axis [0,0,1]                  
     2s_v     5    6
          inv. 180 deg rotation - cart. axis [0,1,0]             
     2s_d     7    8
          inv. 180 deg rotation - cart. axis [1,1,0]             

   Cartesian axes

     site n.     atom                  positions (alat units)
         1        Y      tau(   1) = (   0.2500000   0.2500000   0.7624455  )
         2        Y      tau(   2) = (   0.2500000   0.7500000   0.7624455  )
         3        Y      tau(   3) = (   0.7500000   0.2500000   0.7624455  )
         4        Y      tau(   4) = (   0.7500000   0.7500000   0.7624455  )
         5        Ba     tau(   5) = (   0.2500000   0.2500000   0.2966571  )
         6        Ba     tau(   6) = (   0.2500000   0.2500000   1.2282339  )
         7        Ba     tau(   7) = (   0.2500000   0.7500000   0.2966571  )
         8        Ba     tau(   8) = (   0.2500000   0.7500000   1.2282339  )
         9        Ba     tau(   9) = (   0.7500000   0.2500000   0.2966571  )
        10        Ba     tau(  10) = (   0.7500000   0.2500000   1.2282339  )
        11        Ba     tau(  11) = (   0.7500000   0.7500000   0.2966571  )
        12        Ba     tau(  12) = (   0.7500000   0.7500000   1.2282339  )
        13        Cu     tau(  13) = (   0.0000000   0.0000000   0.0000000  )
        14        Cu1    tau(  14) = (   0.0000000   0.0000000   0.5526369  )
        15        Cu2    tau(  15) = (   0.0000000   0.0000000   0.9722541  )
        16        Cu     tau(  16) = (   0.0000000   0.5000000   0.0000000  )
        17        Cu2    tau(  17) = (   0.0000000   0.5000000   0.5526369  )
        18        Cu1    tau(  18) = (   0.0000000   0.5000000   0.9722541  )
        19        Cu     tau(  19) = (   0.5000000   0.0000000   0.0000000  )
        20        Cu2    tau(  20) = (   0.5000000   0.0000000   0.5526369  )
        21        Cu1    tau(  21) = (   0.5000000   0.0000000   0.9722541  )
        22        Cu     tau(  22) = (   0.5000000   0.5000000   0.0000000  )
        23        Cu1    tau(  23) = (   0.5000000   0.5000000   0.5526369  )
        24        Cu2    tau(  24) = (   0.5000000   0.5000000   0.9722541  )
        25        O      tau(  25) = (   0.0000000   0.0000000   0.2314064  )
        26        O      tau(  26) = (   0.0000000   0.0000000   1.2934846  )
        27        O      tau(  27) = (   0.5000000   0.0000000   0.2314064  )
        28        O      tau(  28) = (   0.5000000   0.0000000   1.2934846  )
        29        O      tau(  29) = (   0.0000000   0.5000000   0.2314064  )
        30        O      tau(  30) = (   0.0000000   0.5000000   1.2934846  )
        31        O      tau(  31) = (   0.5000000   0.5000000   0.2314064  )
        32        O      tau(  32) = (   0.5000000   0.5000000   1.2934846  )
        33        O      tau(  33) = (   0.2500000   0.0000000   0.5769788  )
        34        O      tau(  34) = (   0.2500000   0.0000000   0.9479122  )
        35        O      tau(  35) = (   0.2500000   0.5000000   0.5769788  )
        36        O      tau(  36) = (   0.2500000   0.5000000   0.9479122  )
        37        O      tau(  37) = (   0.7500000   0.0000000   0.5769788  )
        38        O      tau(  38) = (   0.7500000   0.0000000   0.9479122  )
        39        O      tau(  39) = (   0.7500000   0.5000000   0.5769788  )
        40        O      tau(  40) = (   0.7500000   0.5000000   0.9479122  )
        41        O      tau(  41) = (   0.0000000   0.2500000   0.5769788  )
        42        O      tau(  42) = (   0.0000000   0.2500000   0.9479122  )
        43        O      tau(  43) = (   0.5000000   0.2500000   0.5769788  )
        44        O      tau(  44) = (   0.5000000   0.2500000   0.9479122  )
        45        O      tau(  45) = (   0.0000000   0.7500000   0.5769788  )
        46        O      tau(  46) = (   0.0000000   0.7500000   0.9479122  )
        47        O      tau(  47) = (   0.5000000   0.7500000   0.5769788  )
        48        O      tau(  48) = (   0.5000000   0.7500000   0.9479122  )

   Crystallographic axes

     site n.     atom                  positions (cryst. coord.)
         1        Y      tau(   1) = (  0.2500000  0.2500000  0.5000000  )
         2        Y      tau(   2) = (  0.2500000  0.7500000  0.5000000  )
         3        Y      tau(   3) = (  0.7500000  0.2500000  0.5000000  )
         4        Y      tau(   4) = (  0.7500000  0.7500000  0.5000000  )
         5        Ba     tau(   5) = (  0.2500000  0.2500000  0.1945431  )
         6        Ba     tau(   6) = (  0.2500000  0.2500000  0.8054569  )
         7        Ba     tau(   7) = (  0.2500000  0.7500000  0.1945431  )
         8        Ba     tau(   8) = (  0.2500000  0.7500000  0.8054569  )
         9        Ba     tau(   9) = (  0.7500000  0.2500000  0.1945431  )
        10        Ba     tau(  10) = (  0.7500000  0.2500000  0.8054569  )
        11        Ba     tau(  11) = (  0.7500000  0.7500000  0.1945431  )
        12        Ba     tau(  12) = (  0.7500000  0.7500000  0.8054569  )
        13        Cu     tau(  13) = (  0.0000000  0.0000000  0.0000000  )
        14        Cu1    tau(  14) = (  0.0000000  0.0000000  0.3624108  )
        15        Cu2    tau(  15) = (  0.0000000  0.0000000  0.6375892  )
        16        Cu     tau(  16) = (  0.0000000  0.5000000  0.0000000  )
        17        Cu2    tau(  17) = (  0.0000000  0.5000000  0.3624108  )
        18        Cu1    tau(  18) = (  0.0000000  0.5000000  0.6375892  )
        19        Cu     tau(  19) = (  0.5000000  0.0000000  0.0000000  )
        20        Cu2    tau(  20) = (  0.5000000  0.0000000  0.3624108  )
        21        Cu1    tau(  21) = (  0.5000000  0.0000000  0.6375892  )
        22        Cu     tau(  22) = (  0.5000000  0.5000000  0.0000000  )
        23        Cu1    tau(  23) = (  0.5000000  0.5000000  0.3624108  )
        24        Cu2    tau(  24) = (  0.5000000  0.5000000  0.6375892  )
        25        O      tau(  25) = (  0.0000000  0.0000000  0.1517528  )
        26        O      tau(  26) = (  0.0000000  0.0000000  0.8482472  )
        27        O      tau(  27) = (  0.5000000  0.0000000  0.1517528  )
        28        O      tau(  28) = (  0.5000000  0.0000000  0.8482472  )
        29        O      tau(  29) = (  0.0000000  0.5000000  0.1517528  )
        30        O      tau(  30) = (  0.0000000  0.5000000  0.8482472  )
        31        O      tau(  31) = (  0.5000000  0.5000000  0.1517528  )
        32        O      tau(  32) = (  0.5000000  0.5000000  0.8482472  )
        33        O      tau(  33) = (  0.2500000  0.0000000  0.3783738  )
        34        O      tau(  34) = (  0.2500000  0.0000000  0.6216262  )
        35        O      tau(  35) = (  0.2500000  0.5000000  0.3783738  )
        36        O      tau(  36) = (  0.2500000  0.5000000  0.6216262  )
        37        O      tau(  37) = (  0.7500000  0.0000000  0.3783738  )
        38        O      tau(  38) = (  0.7500000  0.0000000  0.6216262  )
        39        O      tau(  39) = (  0.7500000  0.5000000  0.3783738  )
        40        O      tau(  40) = (  0.7500000  0.5000000  0.6216262  )
        41        O      tau(  41) = (  0.0000000  0.2500000  0.3783738  )
        42        O      tau(  42) = (  0.0000000  0.2500000  0.6216262  )
        43        O      tau(  43) = (  0.5000000  0.2500000  0.3783738  )
        44        O      tau(  44) = (  0.5000000  0.2500000  0.6216262  )
        45        O      tau(  45) = (  0.0000000  0.7500000  0.3783738  )
        46        O      tau(  46) = (  0.0000000  0.7500000  0.6216262  )
        47        O      tau(  47) = (  0.5000000  0.7500000  0.3783738  )
        48        O      tau(  48) = (  0.5000000  0.7500000  0.6216262  )

     number of k points=   101
                       cart. coord. in units 2pi/alat
        k(    1) = (   0.0000000   0.0000000   0.0000000), wk =   0.0099010
        k(    2) = (   0.0125000   0.0000000   0.0000000), wk =   0.0099010
        k(    3) = (   0.0250000   0.0000000   0.0000000), wk =   0.0099010
        k(    4) = (   0.0375000   0.0000000   0.0000000), wk =   0.0099010
        k(    5) = (   0.0500000   0.0000000   0.0000000), wk =   0.0099010
        k(    6) = (   0.0625000   0.0000000   0.0000000), wk =   0.0099010
        k(    7) = (   0.0750000   0.0000000   0.0000000), wk =   0.0099010
        k(    8) = (   0.0875000   0.0000000   0.0000000), wk =   0.0099010
        k(    9) = (   0.1000000   0.0000000   0.0000000), wk =   0.0099010
        k(   10) = (   0.1125000   0.0000000   0.0000000), wk =   0.0099010
        k(   11) = (   0.1250000   0.0000000   0.0000000), wk =   0.0099010
        k(   12) = (   0.1375000   0.0000000   0.0000000), wk =   0.0099010
        k(   13) = (   0.1500000   0.0000000   0.0000000), wk =   0.0099010
        k(   14) = (   0.1625000   0.0000000   0.0000000), wk =   0.0099010
        k(   15) = (   0.1750000   0.0000000   0.0000000), wk =   0.0099010
        k(   16) = (   0.1875000   0.0000000   0.0000000), wk =   0.0099010
        k(   17) = (   0.2000000   0.0000000   0.0000000), wk =   0.0099010
        k(   18) = (   0.2125000   0.0000000   0.0000000), wk =   0.0099010
        k(   19) = (   0.2250000   0.0000000   0.0000000), wk =   0.0099010
        k(   20) = (   0.2375000   0.0000000   0.0000000), wk =   0.0099010
        k(   21) = (   0.2500000   0.0000000   0.0000000), wk =   0.0099010
        k(   22) = (   0.2500000   0.0125000   0.0000000), wk =   0.0099010
        k(   23) = (   0.2500000   0.0250000   0.0000000), wk =   0.0099010
        k(   24) = (   0.2500000   0.0375000   0.0000000), wk =   0.0099010
        k(   25) = (   0.2500000   0.0500000   0.0000000), wk =   0.0099010
        k(   26) = (   0.2500000   0.0625000   0.0000000), wk =   0.0099010
        k(   27) = (   0.2500000   0.0750000   0.0000000), wk =   0.0099010
        k(   28) = (   0.2500000   0.0875000   0.0000000), wk =   0.0099010
        k(   29) = (   0.2500000   0.1000000   0.0000000), wk =   0.0099010
        k(   30) = (   0.2500000   0.1125000   0.0000000), wk =   0.0099010
        k(   31) = (   0.2500000   0.1250000   0.0000000), wk =   0.0099010
        k(   32) = (   0.2500000   0.1375000   0.0000000), wk =   0.0099010
        k(   33) = (   0.2500000   0.1500000   0.0000000), wk =   0.0099010
        k(   34) = (   0.2500000   0.1625000   0.0000000), wk =   0.0099010
        k(   35) = (   0.2500000   0.1750000   0.0000000), wk =   0.0099010
        k(   36) = (   0.2500000   0.1875000   0.0000000), wk =   0.0099010
        k(   37) = (   0.2500000   0.2000000   0.0000000), wk =   0.0099010
        k(   38) = (   0.2500000   0.2125000   0.0000000), wk =   0.0099010
        k(   39) = (   0.2500000   0.2250000   0.0000000), wk =   0.0099010
        k(   40) = (   0.2500000   0.2375000   0.0000000), wk =   0.0099010
        k(   41) = (   0.2500000   0.2500000   0.0000000), wk =   0.0099010
        k(   42) = (   0.2375000   0.2500000   0.0000000), wk =   0.0099010
        k(   43) = (   0.2250000   0.2500000   0.0000000), wk =   0.0099010
        k(   44) = (   0.2125000   0.2500000   0.0000000), wk =   0.0099010
        k(   45) = (   0.2000000   0.2500000   0.0000000), wk =   0.0099010
        k(   46) = (   0.1875000   0.2500000   0.0000000), wk =   0.0099010
        k(   47) = (   0.1750000   0.2500000   0.0000000), wk =   0.0099010
        k(   48) = (   0.1625000   0.2500000   0.0000000), wk =   0.0099010
        k(   49) = (   0.1500000   0.2500000   0.0000000), wk =   0.0099010
        k(   50) = (   0.1375000   0.2500000   0.0000000), wk =   0.0099010
        k(   51) = (   0.1250000   0.2500000   0.0000000), wk =   0.0099010
        k(   52) = (   0.1125000   0.2500000   0.0000000), wk =   0.0099010
        k(   53) = (   0.1000000   0.2500000   0.0000000), wk =   0.0099010
        k(   54) = (   0.0875000   0.2500000   0.0000000), wk =   0.0099010
        k(   55) = (   0.0750000   0.2500000   0.0000000), wk =   0.0099010
        k(   56) = (   0.0625000   0.2500000   0.0000000), wk =   0.0099010
        k(   57) = (   0.0500000   0.2500000   0.0000000), wk =   0.0099010
        k(   58) = (   0.0375000   0.2500000   0.0000000), wk =   0.0099010
        k(   59) = (   0.0250000   0.2500000   0.0000000), wk =   0.0099010
        k(   60) = (   0.0125000   0.2500000   0.0000000), wk =   0.0099010
        k(   61) = (   0.0000000   0.2500000   0.0000000), wk =   0.0099010
        k(   62) = (   0.0000000   0.2375000   0.0000000), wk =   0.0099010
        k(   63) = (   0.0000000   0.2250000   0.0000000), wk =   0.0099010
        k(   64) = (   0.0000000   0.2125000   0.0000000), wk =   0.0099010
        k(   65) = (   0.0000000   0.2000000   0.0000000), wk =   0.0099010
        k(   66) = (   0.0000000   0.1875000   0.0000000), wk =   0.0099010
        k(   67) = (   0.0000000   0.1750000   0.0000000), wk =   0.0099010
        k(   68) = (   0.0000000   0.1625000   0.0000000), wk =   0.0099010
        k(   69) = (   0.0000000   0.1500000   0.0000000), wk =   0.0099010
        k(   70) = (   0.0000000   0.1375000   0.0000000), wk =   0.0099010
        k(   71) = (   0.0000000   0.1250000   0.0000000), wk =   0.0099010
        k(   72) = (   0.0000000   0.1125000   0.0000000), wk =   0.0099010
        k(   73) = (   0.0000000   0.1000000   0.0000000), wk =   0.0099010
        k(   74) = (   0.0000000   0.0875000   0.0000000), wk =   0.0099010
        k(   75) = (   0.0000000   0.0750000   0.0000000), wk =   0.0099010
        k(   76) = (   0.0000000   0.0625000   0.0000000), wk =   0.0099010
        k(   77) = (   0.0000000   0.0500000   0.0000000), wk =   0.0099010
        k(   78) = (   0.0000000   0.0375000   0.0000000), wk =   0.0099010
        k(   79) = (   0.0000000   0.0250000   0.0000000), wk =   0.0099010
        k(   80) = (   0.0000000   0.0125000   0.0000000), wk =   0.0099010
        k(   81) = (   0.0000000   0.0000000   0.0000000), wk =   0.0099010
        k(   82) = (   0.0125000   0.0125000   0.0000000), wk =   0.0099010
        k(   83) = (   0.0250000   0.0250000   0.0000000), wk =   0.0099010
        k(   84) = (   0.0375000   0.0375000   0.0000000), wk =   0.0099010
        k(   85) = (   0.0500000   0.0500000   0.0000000), wk =   0.0099010
        k(   86) = (   0.0625000   0.0625000   0.0000000), wk =   0.0099010
        k(   87) = (   0.0750000   0.0750000   0.0000000), wk =   0.0099010
        k(   88) = (   0.0875000   0.0875000   0.0000000), wk =   0.0099010
        k(   89) = (   0.1000000   0.1000000   0.0000000), wk =   0.0099010
        k(   90) = (   0.1125000   0.1125000   0.0000000), wk =   0.0099010
        k(   91) = (   0.1250000   0.1250000   0.0000000), wk =   0.0099010
        k(   92) = (   0.1375000   0.1375000   0.0000000), wk =   0.0099010
        k(   93) = (   0.1500000   0.1500000   0.0000000), wk =   0.0099010
        k(   94) = (   0.1625000   0.1625000   0.0000000), wk =   0.0099010
        k(   95) = (   0.1750000   0.1750000   0.0000000), wk =   0.0099010
        k(   96) = (   0.1875000   0.1875000   0.0000000), wk =   0.0099010
        k(   97) = (   0.2000000   0.2000000   0.0000000), wk =   0.0099010
        k(   98) = (   0.2125000   0.2125000   0.0000000), wk =   0.0099010
        k(   99) = (   0.2250000   0.2250000   0.0000000), wk =   0.0099010
        k(  100) = (   0.2375000   0.2375000   0.0000000), wk =   0.0099010
        k(  101) = (   0.2500000   0.2500000   0.0000000), wk =   0.0099010

                       cryst. coord.
        k(    1) = (   0.0000000   0.0000000   0.0000000), wk =   0.0099010
        k(    2) = (   0.0125000   0.0000000   0.0000000), wk =   0.0099010
        k(    3) = (   0.0250000   0.0000000   0.0000000), wk =   0.0099010
        k(    4) = (   0.0375000   0.0000000   0.0000000), wk =   0.0099010
        k(    5) = (   0.0500000   0.0000000   0.0000000), wk =   0.0099010
        k(    6) = (   0.0625000   0.0000000   0.0000000), wk =   0.0099010
        k(    7) = (   0.0750000   0.0000000   0.0000000), wk =   0.0099010
        k(    8) = (   0.0875000   0.0000000   0.0000000), wk =   0.0099010
        k(    9) = (   0.1000000   0.0000000   0.0000000), wk =   0.0099010
        k(   10) = (   0.1125000   0.0000000   0.0000000), wk =   0.0099010
        k(   11) = (   0.1250000   0.0000000   0.0000000), wk =   0.0099010
        k(   12) = (   0.1375000   0.0000000   0.0000000), wk =   0.0099010
        k(   13) = (   0.1500000   0.0000000   0.0000000), wk =   0.0099010
        k(   14) = (   0.1625000   0.0000000   0.0000000), wk =   0.0099010
        k(   15) = (   0.1750000   0.0000000   0.0000000), wk =   0.0099010
        k(   16) = (   0.1875000   0.0000000   0.0000000), wk =   0.0099010
        k(   17) = (   0.2000000   0.0000000   0.0000000), wk =   0.0099010
        k(   18) = (   0.2125000   0.0000000   0.0000000), wk =   0.0099010
        k(   19) = (   0.2250000   0.0000000   0.0000000), wk =   0.0099010
        k(   20) = (   0.2375000   0.0000000   0.0000000), wk =   0.0099010
        k(   21) = (   0.2500000   0.0000000   0.0000000), wk =   0.0099010
        k(   22) = (   0.2500000   0.0125000   0.0000000), wk =   0.0099010
        k(   23) = (   0.2500000   0.0250000   0.0000000), wk =   0.0099010
        k(   24) = (   0.2500000   0.0375000   0.0000000), wk =   0.0099010
        k(   25) = (   0.2500000   0.0500000   0.0000000), wk =   0.0099010
        k(   26) = (   0.2500000   0.0625000   0.0000000), wk =   0.0099010
        k(   27) = (   0.2500000   0.0750000   0.0000000), wk =   0.0099010
        k(   28) = (   0.2500000   0.0875000   0.0000000), wk =   0.0099010
        k(   29) = (   0.2500000   0.1000000   0.0000000), wk =   0.0099010
        k(   30) = (   0.2500000   0.1125000   0.0000000), wk =   0.0099010
        k(   31) = (   0.2500000   0.1250000   0.0000000), wk =   0.0099010
        k(   32) = (   0.2500000   0.1375000   0.0000000), wk =   0.0099010
        k(   33) = (   0.2500000   0.1500000   0.0000000), wk =   0.0099010
        k(   34) = (   0.2500000   0.1625000   0.0000000), wk =   0.0099010
        k(   35) = (   0.2500000   0.1750000   0.0000000), wk =   0.0099010
        k(   36) = (   0.2500000   0.1875000   0.0000000), wk =   0.0099010
        k(   37) = (   0.2500000   0.2000000   0.0000000), wk =   0.0099010
        k(   38) = (   0.2500000   0.2125000   0.0000000), wk =   0.0099010
        k(   39) = (   0.2500000   0.2250000   0.0000000), wk =   0.0099010
        k(   40) = (   0.2500000   0.2375000   0.0000000), wk =   0.0099010
        k(   41) = (   0.2500000   0.2500000   0.0000000), wk =   0.0099010
        k(   42) = (   0.2375000   0.2500000   0.0000000), wk =   0.0099010
        k(   43) = (   0.2250000   0.2500000   0.0000000), wk =   0.0099010
        k(   44) = (   0.2125000   0.2500000   0.0000000), wk =   0.0099010
        k(   45) = (   0.2000000   0.2500000   0.0000000), wk =   0.0099010
        k(   46) = (   0.1875000   0.2500000   0.0000000), wk =   0.0099010
        k(   47) = (   0.1750000   0.2500000   0.0000000), wk =   0.0099010
        k(   48) = (   0.1625000   0.2500000   0.0000000), wk =   0.0099010
        k(   49) = (   0.1500000   0.2500000   0.0000000), wk =   0.0099010
        k(   50) = (   0.1375000   0.2500000   0.0000000), wk =   0.0099010
        k(   51) = (   0.1250000   0.2500000   0.0000000), wk =   0.0099010
        k(   52) = (   0.1125000   0.2500000   0.0000000), wk =   0.0099010
        k(   53) = (   0.1000000   0.2500000   0.0000000), wk =   0.0099010
        k(   54) = (   0.0875000   0.2500000   0.0000000), wk =   0.0099010
        k(   55) = (   0.0750000   0.2500000   0.0000000), wk =   0.0099010
        k(   56) = (   0.0625000   0.2500000   0.0000000), wk =   0.0099010
        k(   57) = (   0.0500000   0.2500000   0.0000000), wk =   0.0099010
        k(   58) = (   0.0375000   0.2500000   0.0000000), wk =   0.0099010
        k(   59) = (   0.0250000   0.2500000   0.0000000), wk =   0.0099010
        k(   60) = (   0.0125000   0.2500000   0.0000000), wk =   0.0099010
        k(   61) = (   0.0000000   0.2500000   0.0000000), wk =   0.0099010
        k(   62) = (   0.0000000   0.2375000   0.0000000), wk =   0.0099010
        k(   63) = (   0.0000000   0.2250000   0.0000000), wk =   0.0099010
        k(   64) = (   0.0000000   0.2125000   0.0000000), wk =   0.0099010
        k(   65) = (   0.0000000   0.2000000   0.0000000), wk =   0.0099010
        k(   66) = (   0.0000000   0.1875000   0.0000000), wk =   0.0099010
        k(   67) = (   0.0000000   0.1750000   0.0000000), wk =   0.0099010
        k(   68) = (   0.0000000   0.1625000   0.0000000), wk =   0.0099010
        k(   69) = (   0.0000000   0.1500000   0.0000000), wk =   0.0099010
        k(   70) = (   0.0000000   0.1375000   0.0000000), wk =   0.0099010
        k(   71) = (   0.0000000   0.1250000   0.0000000), wk =   0.0099010
        k(   72) = (   0.0000000   0.1125000   0.0000000), wk =   0.0099010
        k(   73) = (   0.0000000   0.1000000   0.0000000), wk =   0.0099010
        k(   74) = (   0.0000000   0.0875000   0.0000000), wk =   0.0099010
        k(   75) = (   0.0000000   0.0750000   0.0000000), wk =   0.0099010
        k(   76) = (   0.0000000   0.0625000   0.0000000), wk =   0.0099010
        k(   77) = (   0.0000000   0.0500000   0.0000000), wk =   0.0099010
        k(   78) = (   0.0000000   0.0375000   0.0000000), wk =   0.0099010
        k(   79) = (   0.0000000   0.0250000   0.0000000), wk =   0.0099010
        k(   80) = (   0.0000000   0.0125000   0.0000000), wk =   0.0099010
        k(   81) = (   0.0000000   0.0000000   0.0000000), wk =   0.0099010
        k(   82) = (   0.0125000   0.0125000   0.0000000), wk =   0.0099010
        k(   83) = (   0.0250000   0.0250000   0.0000000), wk =   0.0099010
        k(   84) = (   0.0375000   0.0375000   0.0000000), wk =   0.0099010
        k(   85) = (   0.0500000   0.0500000   0.0000000), wk =   0.0099010
        k(   86) = (   0.0625000   0.0625000   0.0000000), wk =   0.0099010
        k(   87) = (   0.0750000   0.0750000   0.0000000), wk =   0.0099010
        k(   88) = (   0.0875000   0.0875000   0.0000000), wk =   0.0099010
        k(   89) = (   0.1000000   0.1000000   0.0000000), wk =   0.0099010
        k(   90) = (   0.1125000   0.1125000   0.0000000), wk =   0.0099010
        k(   91) = (   0.1250000   0.1250000   0.0000000), wk =   0.0099010
        k(   92) = (   0.1375000   0.1375000   0.0000000), wk =   0.0099010
        k(   93) = (   0.1500000   0.1500000   0.0000000), wk =   0.0099010
        k(   94) = (   0.1625000   0.1625000   0.0000000), wk =   0.0099010
        k(   95) = (   0.1750000   0.1750000   0.0000000), wk =   0.0099010
        k(   96) = (   0.1875000   0.1875000   0.0000000), wk =   0.0099010
        k(   97) = (   0.2000000   0.2000000   0.0000000), wk =   0.0099010
        k(   98) = (   0.2125000   0.2125000   0.0000000), wk =   0.0099010
        k(   99) = (   0.2250000   0.2250000   0.0000000), wk =   0.0099010
        k(  100) = (   0.2375000   0.2375000   0.0000000), wk =   0.0099010
        k(  101) = (   0.2500000   0.2500000   0.0000000), wk =   0.0099010

     Dense  grid:   954065 G-vectors     FFT dimensions: ( 108, 108, 162)

     Smooth grid:   282619 G-vectors     FFT dimensions: (  72,  72, 108)

     Dynamical RAM for                 wfc:      50.14 MB

     Dynamical RAM for     wfc (w. buffer):      50.14 MB

     Dynamical RAM for             U proj.:       5.39 MB

     Dynamical RAM for  U proj. (w. buff.):       5.39 MB

     Dynamical RAM for           str. fact:      21.84 MB

     Dynamical RAM for           local pot:       0.00 MB

     Dynamical RAM for          nlocal pot:     107.82 MB

     Dynamical RAM for                qrad:      20.88 MB

     Dynamical RAM for          rho,v,vnew:      43.73 MB

     Dynamical RAM for           G-vectors:      14.19 MB

     Dynamical RAM for          h,s,v(r/c):       6.33 MB

     Dynamical RAM for          <psi|beta>:       4.54 MB

     Dynamical RAM for                 psi:     100.28 MB

     Dynamical RAM for                hpsi:     100.28 MB

     Dynamical RAM for                spsi:     100.28 MB

     Dynamical RAM for      wfcinit/wfcrot:     113.79 MB

     Dynamical RAM for           addusdens:    1372.08 MB

     Estimated static dynamical RAM per process >     311.35 MB

     Estimated max dynamical RAM per process >       1.64 GB

     Estimated total dynamical RAM >       6.58 GB

     Check: negative core charge=   -0.000002
     Generating pointlists ...
     new r_m :   0.1284 (alat units)  1.8421 (a.u.) for type    1
     new r_m :   0.1483 (alat units)  2.1276 (a.u.) for type    2
     new r_m :   0.0955 (alat units)  1.3694 (a.u.) for type    3
     new r_m :   0.1036 (alat units)  1.4864 (a.u.) for type    4
     new r_m :   0.1036 (alat units)  1.4864 (a.u.) for type    5
     new r_m :   0.0955 (alat units)  1.3694 (a.u.) for type    6

     The potential is recalculated from file :
     ./YBCO6/YBCO6.save/charge-density


     negative rho (up, down):  3.570E-01 3.570E-01

     HUBBARD ENERGY =    0.4146  (Ry)

     STARTING HUBBARD OCCUPATIONS:

     =================== HUBBARD OCCUPATIONS ===================
     ------------------------ ATOM   14 ------------------------
     Tr[ns( 14)] (up, down, total) =   4.74397  4.54971  9.29368
     Atomic magnetic moment for atom  14 =   0.19426
     SPIN  1
     eigenvalues:
       0.852  0.952  0.978  0.978  0.985
     eigenvectors (columns):
      -0.000  1.000 -0.000 -0.000  0.000
      -0.000  0.000  0.362  0.932  0.000
      -0.000  0.000  0.932 -0.362  0.000
       1.000  0.000  0.000  0.000 -0.000
       0.000 -0.000 -0.000 -0.000  1.000
     occupation matrix ns (before diag.):
       0.952 -0.000 -0.000  0.000  0.000
      -0.000  0.978 -0.000  0.000  0.000
      -0.000 -0.000  0.978  0.000  0.000
       0.000  0.000  0.000  0.852 -0.000
       0.000  0.000  0.000 -0.000  0.985
     SPIN  2
     eigenvalues:
       0.665  0.947  0.977  0.977  0.984
     eigenvectors (columns):
      -0.000  1.000 -0.000 -0.000  0.000
      -0.000  0.000  0.317  0.948  0.000
      -0.000  0.000  0.948 -0.317  0.000
       1.000  0.000  0.000  0.000 -0.000
       0.000 -0.000 -0.000 -0.000  1.000
     occupation matrix ns (before diag.):
       0.947 -0.000 -0.000  0.000  0.000
      -0.000  0.977 -0.000  0.000  0.000
      -0.000 -0.000  0.977  0.000  0.000
       0.000  0.000  0.000  0.665 -0.000
       0.000  0.000  0.000 -0.000  0.984
     ------------------------ ATOM   15 ------------------------
     Tr[ns( 15)] (up, down, total) =   4.54971  4.74397  9.29368
     Atomic magnetic moment for atom  15 =  -0.19426
     SPIN  1
     eigenvalues:
       0.665  0.947  0.977  0.977  0.984
     eigenvectors (columns):
      -0.000  1.000 -0.000 -0.000  0.000
      -0.000  0.000  0.369  0.929  0.000
      -0.000  0.000  0.929 -0.369  0.000
       1.000  0.000  0.000  0.000 -0.000
       0.000 -0.000 -0.000 -0.000  1.000
     occupation matrix ns (before diag.):
       0.947 -0.000 -0.000  0.000  0.000
      -0.000  0.977 -0.000  0.000  0.000
      -0.000 -0.000  0.977  0.000  0.000
       0.000  0.000  0.000  0.665 -0.000
       0.000  0.000  0.000 -0.000  0.984
     SPIN  2
     eigenvalues:
       0.852  0.952  0.978  0.978  0.985
     eigenvectors (columns):
      -0.000  1.000 -0.000 -0.000  0.000
      -0.000  0.000  0.304  0.953  0.000
      -0.000  0.000  0.953 -0.304  0.000
       1.000  0.000  0.000  0.000 -0.000
       0.000 -0.000 -0.000 -0.000  1.000
     occupation matrix ns (before diag.):
       0.952 -0.000 -0.000  0.000  0.000
      -0.000  0.978 -0.000  0.000  0.000
      -0.000 -0.000  0.978  0.000  0.000
       0.000  0.000  0.000  0.852 -0.000
       0.000  0.000  0.000 -0.000  0.985
     ------------------------ ATOM   17 ------------------------
     Tr[ns( 17)] (up, down, total) =   4.54971  4.74397  9.29368
     Atomic magnetic moment for atom  17 =  -0.19425
     SPIN  1
     eigenvalues:
       0.665  0.947  0.977  0.977  0.984
     eigenvectors (columns):
      -0.000  1.000 -0.000 -0.000  0.000
      -0.000  0.000  0.000  1.000  0.000
      -0.000  0.000  1.000 -0.000  0.000
       1.000  0.000  0.000  0.000 -0.000
       0.000 -0.000 -0.000 -0.000  1.000
     occupation matrix ns (before diag.):
       0.947 -0.000 -0.000  0.000  0.000
      -0.000  0.977 -0.000  0.000  0.000
      -0.000 -0.000  0.977  0.000  0.000
       0.000  0.000  0.000  0.665 -0.000
       0.000  0.000  0.000 -0.000  0.984
     SPIN  2
     eigenvalues:
       0.852  0.952  0.978  0.978  0.985
     eigenvectors (columns):
       0.000  1.000 -0.000 -0.000  0.000
      -0.000  0.000  0.000  1.000  0.000
      -0.000  0.000  1.000 -0.000  0.000
       1.000 -0.000  0.000  0.000 -0.000
       0.000 -0.000 -0.000 -0.000  1.000
     occupation matrix ns (before diag.):
       0.952 -0.000 -0.000 -0.000  0.000
      -0.000  0.978 -0.000  0.000  0.000
      -0.000 -0.000  0.978  0.000  0.000
      -0.000  0.000  0.000  0.852 -0.000
       0.000  0.000  0.000 -0.000  0.985
     ------------------------ ATOM   18 ------------------------
     Tr[ns( 18)] (up, down, total) =   4.74397  4.54971  9.29368
     Atomic magnetic moment for atom  18 =   0.19426
     SPIN  1
     eigenvalues:
       0.852  0.952  0.978  0.978  0.985
     eigenvectors (columns):
       0.000  1.000 -0.000 -0.000  0.000
      -0.000  0.000  0.000  1.000  0.000
      -0.000  0.000  1.000 -0.000  0.000
       1.000 -0.000  0.000  0.000 -0.000
       0.000 -0.000 -0.000 -0.000  1.000
     occupation matrix ns (before diag.):
       0.952 -0.000 -0.000 -0.000  0.000
      -0.000  0.978 -0.000  0.000  0.000
      -0.000 -0.000  0.978  0.000  0.000
      -0.000  0.000  0.000  0.852 -0.000
       0.000  0.000  0.000 -0.000  0.985
     SPIN  2
     eigenvalues:
       0.665  0.947  0.977  0.977  0.984
     eigenvectors (columns):
      -0.000  1.000 -0.000 -0.000  0.000
      -0.000  0.000  1.000 -0.000  0.000
      -0.000  0.000  0.000  1.000  0.000
       1.000  0.000  0.000  0.000 -0.000
       0.000 -0.000 -0.000 -0.000  1.000
     occupation matrix ns (before diag.):
       0.947 -0.000 -0.000  0.000  0.000
      -0.000  0.977 -0.000  0.000  0.000
      -0.000 -0.000  0.977  0.000  0.000
       0.000  0.000  0.000  0.665 -0.000
       0.000  0.000  0.000 -0.000  0.984
     ------------------------ ATOM   20 ------------------------
     Tr[ns( 20)] (up, down, total) =   4.54971  4.74397  9.29368
     Atomic magnetic moment for atom  20 =  -0.19425
     SPIN  1
     eigenvalues:
       0.665  0.947  0.977  0.977  0.984
     eigenvectors (columns):
       0.000  1.000 -0.000 -0.000  0.000
      -0.000  0.000  1.000 -0.000  0.000
      -0.000  0.000  0.000  1.000  0.000
       1.000 -0.000  0.000  0.000 -0.000
       0.000 -0.000 -0.000 -0.000  1.000
     occupation matrix ns (before diag.):
       0.947 -0.000 -0.000 -0.000  0.000
      -0.000  0.977 -0.000  0.000  0.000
      -0.000 -0.000  0.977  0.000  0.000
      -0.000  0.000  0.000  0.665 -0.000
       0.000  0.000  0.000 -0.000  0.984
     SPIN  2
     eigenvalues:
       0.852  0.952  0.978  0.978  0.985
     eigenvectors (columns):
      -0.000  1.000 -0.000 -0.000  0.000
      -0.000  0.000  1.000 -0.000  0.000
      -0.000  0.000  0.000  1.000  0.000
       1.000  0.000  0.000  0.000 -0.000
       0.000 -0.000 -0.000 -0.000  1.000
     occupation matrix ns (before diag.):
       0.952 -0.000 -0.000  0.000  0.000
      -0.000  0.978 -0.000  0.000  0.000
      -0.000 -0.000  0.978  0.000  0.000
       0.000  0.000  0.000  0.852 -0.000
       0.000  0.000  0.000 -0.000  0.985
     ------------------------ ATOM   21 ------------------------
     Tr[ns( 21)] (up, down, total) =   4.74397  4.54971  9.29368
     Atomic magnetic moment for atom  21 =   0.19426
     SPIN  1
     eigenvalues:
       0.852  0.952  0.978  0.978  0.985
     eigenvectors (columns):
      -0.000  1.000 -0.000 -0.000  0.000
      -0.000  0.000  1.000 -0.000  0.000
      -0.000  0.000  0.000  1.000  0.000
       1.000  0.000  0.000  0.000 -0.000
       0.000 -0.000 -0.000 -0.000  1.000
     occupation matrix ns (before diag.):
       0.952 -0.000 -0.000  0.000  0.000
      -0.000  0.978 -0.000  0.000  0.000
      -0.000 -0.000  0.978  0.000  0.000
       0.000  0.000  0.000  0.852 -0.000
       0.000  0.000  0.000 -0.000  0.985
     SPIN  2
     eigenvalues:
       0.665  0.947  0.977  0.977  0.984
     eigenvectors (columns):
       0.000  1.000 -0.000 -0.000  0.000
      -0.000  0.000  0.000  1.000  0.000
      -0.000  0.000  1.000 -0.000  0.000
       1.000 -0.000  0.000  0.000 -0.000
       0.000 -0.000 -0.000 -0.000  1.000
     occupation matrix ns (before diag.):
       0.947 -0.000 -0.000 -0.000  0.000
      -0.000  0.977 -0.000  0.000  0.000
      -0.000 -0.000  0.977  0.000  0.000
      -0.000  0.000  0.000  0.665 -0.000
       0.000  0.000  0.000 -0.000  0.984
     ------------------------ ATOM   23 ------------------------
     Tr[ns( 23)] (up, down, total) =   4.74397  4.54971  9.29368
     Atomic magnetic moment for atom  23 =   0.19426
     SPIN  1
     eigenvalues:
       0.852  0.952  0.978  0.978  0.985
     eigenvectors (columns):
      -0.000  1.000 -0.000 -0.000  0.000
      -0.000  0.000  0.307  0.952  0.000
      -0.000  0.000  0.952 -0.307  0.000
       1.000  0.000  0.000  0.000 -0.000
       0.000 -0.000 -0.000 -0.000  1.000
     occupation matrix ns (before diag.):
       0.952 -0.000 -0.000  0.000  0.000
      -0.000  0.978 -0.000  0.000  0.000
      -0.000 -0.000  0.978  0.000  0.000
       0.000  0.000  0.000  0.852 -0.000
       0.000  0.000  0.000 -0.000  0.985
     SPIN  2
     eigenvalues:
       0.665  0.947  0.977  0.977  0.984
     eigenvectors (columns):
      -0.000  1.000 -0.000 -0.000  0.000
      -0.000  0.000  0.284  0.959  0.000
      -0.000  0.000  0.959 -0.284  0.000
       1.000  0.000  0.000  0.000 -0.000
       0.000 -0.000 -0.000 -0.000  1.000
     occupation matrix ns (before diag.):
       0.947 -0.000 -0.000  0.000  0.000
      -0.000  0.977 -0.000  0.000  0.000
      -0.000 -0.000  0.977  0.000  0.000
       0.000  0.000  0.000  0.665 -0.000
       0.000  0.000  0.000 -0.000  0.984
     ------------------------ ATOM   24 ------------------------
     Tr[ns( 24)] (up, down, total) =   4.54971  4.74397  9.29368
     Atomic magnetic moment for atom  24 =  -0.19426
     SPIN  1
     eigenvalues:
       0.665  0.947  0.977  0.977  0.984
     eigenvectors (columns):
      -0.000  1.000 -0.000 -0.000  0.000
      -0.000  0.000  0.323  0.946  0.000
      -0.000  0.000  0.946 -0.323  0.000
       1.000  0.000  0.000  0.000 -0.000
       0.000 -0.000 -0.000 -0.000  1.000
     occupation matrix ns (before diag.):
       0.947 -0.000 -0.000  0.000  0.000
      -0.000  0.977 -0.000  0.000  0.000
      -0.000 -0.000  0.977  0.000  0.000
       0.000  0.000  0.000  0.665 -0.000
       0.000  0.000  0.000 -0.000  0.984
     SPIN  2
     eigenvalues:
       0.852  0.952  0.978  0.978  0.985
     eigenvectors (columns):
      -0.000  1.000 -0.000 -0.000  0.000
      -0.000  0.000  0.308  0.951  0.000
      -0.000  0.000  0.951 -0.308  0.000
       1.000  0.000  0.000  0.000 -0.000
       0.000 -0.000 -0.000 -0.000  1.000
     occupation matrix ns (before diag.):
       0.952 -0.000 -0.000  0.000  0.000
      -0.000  0.978 -0.000  0.000  0.000
      -0.000 -0.000  0.978  0.000  0.000
       0.000  0.000  0.000  0.852 -0.000
       0.000  0.000  0.000 -0.000  0.985

     Number of occupied Hubbard levels =   74.3494

     Atomic wfc used for Hubbard projectors are orthogonalized

     Starting wfcs are  408 randomized atomic wfcs

     Band Structure Calculation
     Davidson diagonalization with overlap

     Computing kpt #:     1  of   202
     total cpu time spent up to now is      462.7 secs

     Computing kpt #:     2  of   202
     c_bands:  1 eigenvalues not converged
     total cpu time spent up to now is      619.5 secs

     Computing kpt #:     3  of   202
     c_bands:  1 eigenvalues not converged
     total cpu time spent up to now is      775.8 secs

     Computing kpt #:     4  of   202
     total cpu time spent up to now is      921.0 secs

     Computing kpt #:     5  of   202
     total cpu time spent up to now is     1075.7 secs

     Computing kpt #:     6  of   202
     c_bands:  2 eigenvalues not converged
     total cpu time spent up to now is     1233.3 secs

     Computing kpt #:     7  of   202
     total cpu time spent up to now is     1378.8 secs

     Computing kpt #:     8  of   202
     c_bands:  2 eigenvalues not converged
     total cpu time spent up to now is     1536.4 secs

     Computing kpt #:     9  of   202
     c_bands:  1 eigenvalues not converged
     total cpu time spent up to now is     1694.2 secs

     Computing kpt #:    10  of   202
     total cpu time spent up to now is     1850.7 secs

     Computing kpt #:    11  of   202
     total cpu time spent up to now is     1996.8 secs

     Computing kpt #:    12  of   202
     total cpu time spent up to now is     2135.0 secs

     Computing kpt #:    13  of   202
     total cpu time spent up to now is     2271.5 secs

     Computing kpt #:    14  of   202
     total cpu time spent up to now is     2408.2 secs

     Computing kpt #:    15  of   202
     total cpu time spent up to now is     2544.6 secs

     Computing kpt #:    16  of   202
     total cpu time spent up to now is     2697.9 secs

     Computing kpt #:    17  of   202
     c_bands:  1 eigenvalues not converged
     total cpu time spent up to now is     2854.7 secs

     Computing kpt #:    18  of   202
     c_bands:  1 eigenvalues not converged
     total cpu time spent up to now is     3011.0 secs

     Computing kpt #:    19  of   202
     total cpu time spent up to now is     3147.9 secs

     Computing kpt #:    20  of   202
     total cpu time spent up to now is     3284.6 secs

     Computing kpt #:    21  of   202
     total cpu time spent up to now is     3420.7 secs

     Computing kpt #:    22  of   202
     total cpu time spent up to now is     3557.6 secs

     Computing kpt #:    23  of   202
     total cpu time spent up to now is     3694.8 secs

     Computing kpt #:    24  of   202
     total cpu time spent up to now is     3831.8 secs

     Computing kpt #:    25  of   202
     total cpu time spent up to now is     3976.8 secs

     Computing kpt #:    26  of   202
     total cpu time spent up to now is     4125.4 secs

     Computing kpt #:    27  of   202
     total cpu time spent up to now is     4280.5 secs

     Computing kpt #:    28  of   202
     total cpu time spent up to now is     4428.4 secs

     Computing kpt #:    29  of   202
     total cpu time spent up to now is     4584.3 secs

     Computing kpt #:    30  of   202
     c_bands:  2 eigenvalues not converged
     total cpu time spent up to now is     4742.8 secs

     Computing kpt #:    31  of   202
     c_bands:  1 eigenvalues not converged
     total cpu time spent up to now is     4899.7 secs

     Computing kpt #:    32  of   202
     total cpu time spent up to now is     5045.4 secs

     Computing kpt #:    33  of   202
     total cpu time spent up to now is     5180.8 secs

     Computing kpt #:    34  of   202
     total cpu time spent up to now is     5317.7 secs

     Computing kpt #:    35  of   202
     total cpu time spent up to now is     5454.1 secs

     Computing kpt #:    36  of   202
     total cpu time spent up to now is     5590.3 secs

     Computing kpt #:    37  of   202
     total cpu time spent up to now is     5727.0 secs

     Computing kpt #:    38  of   202
     total cpu time spent up to now is     5863.2 secs

     Computing kpt #:    39  of   202
     total cpu time spent up to now is     6007.9 secs

     Computing kpt #:    40  of   202
     total cpu time spent up to now is     6153.7 secs

     Computing kpt #:    41  of   202
     total cpu time spent up to now is     6290.2 secs

     Computing kpt #:    42  of   202
     total cpu time spent up to now is     6435.5 secs

     Computing kpt #:    43  of   202
     total cpu time spent up to now is     6572.1 secs

     Computing kpt #:    44  of   202
     total cpu time spent up to now is     6716.4 secs

     Computing kpt #:    45  of   202
     total cpu time spent up to now is     6853.7 secs

     Computing kpt #:    46  of   202
     total cpu time spent up to now is     6989.8 secs

     Computing kpt #:    47  of   202
     total cpu time spent up to now is     7126.5 secs

     Computing kpt #:    48  of   202
     total cpu time spent up to now is     7262.9 secs

     Computing kpt #:    49  of   202
     total cpu time spent up to now is     7397.6 secs

     Computing kpt #:    50  of   202
     c_bands:  1 eigenvalues not converged
     total cpu time spent up to now is     7554.8 secs

     Computing kpt #:    51  of   202
     c_bands:  1 eigenvalues not converged
     total cpu time spent up to now is     7713.0 secs

     Computing kpt #:    52  of   202
     c_bands:  1 eigenvalues not converged
     total cpu time spent up to now is     7870.0 secs

     Computing kpt #:    53  of   202
     c_bands:  1 eigenvalues not converged
     total cpu time spent up to now is     8027.1 secs

     Computing kpt #:    54  of   202
     c_bands:  1 eigenvalues not converged
     total cpu time spent up to now is     8184.1 secs

     Computing kpt #:    55  of   202
     total cpu time spent up to now is     8340.5 secs

     Computing kpt #:    56  of   202
     total cpu time spent up to now is     8487.2 secs

     Computing kpt #:    57  of   202
     total cpu time spent up to now is     8642.9 secs

     Computing kpt #:    58  of   202
     total cpu time spent up to now is     8779.6 secs

     Computing kpt #:    59  of   202
     total cpu time spent up to now is     8927.1 secs

     Computing kpt #:    60  of   202
     total cpu time spent up to now is     9072.2 secs

     Computing kpt #:    61  of   202
     total cpu time spent up to now is     9208.6 secs

     Computing kpt #:    62  of   202
     total cpu time spent up to now is     9345.3 secs

     Computing kpt #:    63  of   202
     total cpu time spent up to now is     9489.8 secs

     Computing kpt #:    64  of   202
     c_bands:  1 eigenvalues not converged
     total cpu time spent up to now is     9647.2 secs

     Computing kpt #:    65  of   202
     c_bands:  1 eigenvalues not converged
     total cpu time spent up to now is     9803.8 secs

     Computing kpt #:    66  of   202
     c_bands:  1 eigenvalues not converged
     total cpu time spent up to now is     9960.0 secs

     Computing kpt #:    67  of   202
     c_bands:  1 eigenvalues not converged
     total cpu time spent up to now is    10115.8 secs

     Computing kpt #:    68  of   202
     total cpu time spent up to now is    10253.0 secs

     Computing kpt #:    69  of   202
     total cpu time spent up to now is    10389.9 secs

     Computing kpt #:    70  of   202
     total cpu time spent up to now is    10525.8 secs

     Computing kpt #:    71  of   202
     total cpu time spent up to now is    10662.1 secs

     Computing kpt #:    72  of   202
     c_bands:  1 eigenvalues not converged
     total cpu time spent up to now is    10818.9 secs

     Computing kpt #:    73  of   202
     c_bands:  1 eigenvalues not converged
     total cpu time spent up to now is    10975.0 secs

     Computing kpt #:    74  of   202
     total cpu time spent up to now is    11119.6 secs

     Computing kpt #:    75  of   202
     c_bands:  1 eigenvalues not converged
     total cpu time spent up to now is    11276.3 secs

     Computing kpt #:    76  of   202
     c_bands:  2 eigenvalues not converged
     total cpu time spent up to now is    11433.7 secs

     Computing kpt #:    77  of   202
     c_bands:  1 eigenvalues not converged
     total cpu time spent up to now is    11590.0 secs

     Computing kpt #:    78  of   202
     total cpu time spent up to now is    11745.4 secs

     Computing kpt #:    79  of   202
     c_bands:  1 eigenvalues not converged
     total cpu time spent up to now is    11902.0 secs

     Computing kpt #:    80  of   202
     c_bands:  1 eigenvalues not converged
     total cpu time spent up to now is    12057.4 secs

     Computing kpt #:    81  of   202
     c_bands:  1 eigenvalues not converged
     total cpu time spent up to now is    12214.7 secs

     Computing kpt #:    82  of   202
     c_bands:  1 eigenvalues not converged
     total cpu time spent up to now is    12370.5 secs

     Computing kpt #:    83  of   202
     total cpu time spent up to now is    12516.4 secs

     Computing kpt #:    84  of   202
     c_bands:  1 eigenvalues not converged
     total cpu time spent up to now is    12672.5 secs

     Computing kpt #:    85  of   202
     total cpu time spent up to now is    12826.7 secs

     Computing kpt #:    86  of   202
     total cpu time spent up to now is    12972.5 secs

     Computing kpt #:    87  of   202
     total cpu time spent up to now is    13117.7 secs

     Computing kpt #:    88  of   202
     total cpu time spent up to now is    13273.6 secs

     Computing kpt #:    89  of   202
     c_bands:  1 eigenvalues not converged
     total cpu time spent up to now is    13430.0 secs

     Computing kpt #:    90  of   202
     c_bands:  1 eigenvalues not converged
     total cpu time spent up to now is    13586.3 secs

     Computing kpt #:    91  of   202
     c_bands:  2 eigenvalues not converged
     total cpu time spent up to now is    13744.7 secs

     Computing kpt #:    92  of   202
     total cpu time spent up to now is    13881.7 secs

     Computing kpt #:    93  of   202
     c_bands:  1 eigenvalues not converged
     total cpu time spent up to now is    14039.0 secs

     Computing kpt #:    94  of   202
     c_bands:  1 eigenvalues not converged
     total cpu time spent up to now is    14195.5 secs

     Computing kpt #:    95  of   202
     c_bands:  1 eigenvalues not converged
     total cpu time spent up to now is    14351.8 secs

     Computing kpt #:    96  of   202
     c_bands:  1 eigenvalues not converged
     total cpu time spent up to now is    14507.8 secs

     Computing kpt #:    97  of   202
     c_bands:  1 eigenvalues not converged
     total cpu time spent up to now is    14664.3 secs

     Computing kpt #:    98  of   202
     c_bands:  1 eigenvalues not converged
     total cpu time spent up to now is    14820.2 secs

     Computing kpt #:    99  of   202
     total cpu time spent up to now is    14957.2 secs

     Computing kpt #:   100  of   202
     total cpu time spent up to now is    15093.6 secs

     Computing kpt #:   101  of   202
     total cpu time spent up to now is    15230.3 secs

     Computing kpt #:   102  of   202
     total cpu time spent up to now is    15384.7 secs

     Computing kpt #:   103  of   202
     total cpu time spent up to now is    15539.8 secs

     Computing kpt #:   104  of   202
     c_bands:  1 eigenvalues not converged
     total cpu time spent up to now is    15696.3 secs

     Computing kpt #:   105  of   202
     total cpu time spent up to now is    15850.2 secs

     Computing kpt #:   106  of   202
     c_bands:  1 eigenvalues not converged
     total cpu time spent up to now is    16006.2 secs

     Computing kpt #:   107  of   202
     c_bands:  1 eigenvalues not converged
     total cpu time spent up to now is    16162.7 secs

     Computing kpt #:   108  of   202
     c_bands:  2 eigenvalues not converged
     total cpu time spent up to now is    16319.3 secs

     Computing kpt #:   109  of   202
     c_bands:  2 eigenvalues not converged
     total cpu time spent up to now is    16477.3 secs

     Computing kpt #:   110  of   202
     total cpu time spent up to now is    16633.0 secs

     Computing kpt #:   111  of   202
     total cpu time spent up to now is    16778.4 secs

     Computing kpt #:   112  of   202
     total cpu time spent up to now is    16914.4 secs

     Computing kpt #:   113  of   202
     total cpu time spent up to now is    17050.5 secs

     Computing kpt #:   114  of   202
     total cpu time spent up to now is    17187.2 secs

     Computing kpt #:   115  of   202
     total cpu time spent up to now is    17323.3 secs

     Computing kpt #:   116  of   202
     c_bands:  2 eigenvalues not converged
     total cpu time spent up to now is    17480.3 secs

     Computing kpt #:   117  of   202
     total cpu time spent up to now is    17625.4 secs

     Computing kpt #:   118  of   202
     total cpu time spent up to now is    17779.4 secs

     Computing kpt #:   119  of   202
     c_bands:  2 eigenvalues not converged
     total cpu time spent up to now is    17936.2 secs

     Computing kpt #:   120  of   202
     total cpu time spent up to now is    18073.5 secs

     Computing kpt #:   121  of   202
     total cpu time spent up to now is    18218.5 secs

     Computing kpt #:   122  of   202
     total cpu time spent up to now is    18365.5 secs

     Computing kpt #:   123  of   202
     total cpu time spent up to now is    18501.1 secs

     Computing kpt #:   124  of   202
     total cpu time spent up to now is    18637.8 secs

     Computing kpt #:   125  of   202
     total cpu time spent up to now is    18782.5 secs

     Computing kpt #:   126  of   202
     total cpu time spent up to now is    18929.2 secs

     Computing kpt #:   127  of   202
     total cpu time spent up to now is    19085.1 secs

     Computing kpt #:   128  of   202
     total cpu time spent up to now is    19232.8 secs

     Computing kpt #:   129  of   202
     total cpu time spent up to now is    19387.6 secs

     Computing kpt #:   130  of   202
     total cpu time spent up to now is    19542.0 secs

     Computing kpt #:   131  of   202
     c_bands:  2 eigenvalues not converged
     total cpu time spent up to now is    19699.1 secs

     Computing kpt #:   132  of   202
     total cpu time spent up to now is    19855.2 secs

     Computing kpt #:   133  of   202
     c_bands:  1 eigenvalues not converged
     total cpu time spent up to now is    20011.6 secs

     Computing kpt #:   134  of   202
     c_bands:  1 eigenvalues not converged
     total cpu time spent up to now is    20168.1 secs

     Computing kpt #:   135  of   202
     c_bands:  2 eigenvalues not converged
     total cpu time spent up to now is    20326.4 secs

     Computing kpt #:   136  of   202
     total cpu time spent up to now is    20462.7 secs

     Computing kpt #:   137  of   202
     total cpu time spent up to now is    20599.0 secs

     Computing kpt #:   138  of   202
     total cpu time spent up to now is    20736.0 secs

     Computing kpt #:   139  of   202
     total cpu time spent up to now is    20873.0 secs

     Computing kpt #:   140  of   202
     total cpu time spent up to now is    21009.8 secs

     Computing kpt #:   141  of   202
     total cpu time spent up to now is    21166.2 secs

     Computing kpt #:   142  of   202
     total cpu time spent up to now is    21302.4 secs

     Computing kpt #:   143  of   202
     total cpu time spent up to now is    21439.6 secs

     Computing kpt #:   144  of   202
     total cpu time spent up to now is    21576.4 secs

     Computing kpt #:   145  of   202
     total cpu time spent up to now is    21712.8 secs

     Computing kpt #:   146  of   202
     total cpu time spent up to now is    21847.7 secs

     Computing kpt #:   147  of   202
     total cpu time spent up to now is    21993.0 secs

     Computing kpt #:   148  of   202
     total cpu time spent up to now is    22128.1 secs

     Computing kpt #:   149  of   202
     total cpu time spent up to now is    22264.2 secs

     Computing kpt #:   150  of   202
     total cpu time spent up to now is    22400.8 secs

     Computing kpt #:   151  of   202
     c_bands:  1 eigenvalues not converged
     total cpu time spent up to now is    22557.3 secs

     Computing kpt #:   152  of   202
     total cpu time spent up to now is    22701.2 secs

     Computing kpt #:   153  of   202
     c_bands:  1 eigenvalues not converged
     total cpu time spent up to now is    22858.0 secs

     Computing kpt #:   154  of   202
     c_bands:  1 eigenvalues not converged
     total cpu time spent up to now is    23015.4 secs

     Computing kpt #:   155  of   202
     total cpu time spent up to now is    23169.8 secs

     Computing kpt #:   156  of   202
     total cpu time spent up to now is    23324.7 secs

     Computing kpt #:   157  of   202
     total cpu time spent up to now is    23461.9 secs

     Computing kpt #:   158  of   202
     total cpu time spent up to now is    23605.7 secs

     Computing kpt #:   159  of   202
     total cpu time spent up to now is    23742.4 secs

     Computing kpt #:   160  of   202
     total cpu time spent up to now is    23887.7 secs

     Computing kpt #:   161  of   202
     total cpu time spent up to now is    24032.0 secs

     Computing kpt #:   162  of   202
     total cpu time spent up to now is    24177.8 secs

     Computing kpt #:   163  of   202
     total cpu time spent up to now is    24314.9 secs

     Computing kpt #:   164  of   202
     total cpu time spent up to now is    24459.9 secs

     Computing kpt #:   165  of   202
     total cpu time spent up to now is    24614.5 secs

     Computing kpt #:   166  of   202
     c_bands:  1 eigenvalues not converged
     total cpu time spent up to now is    24770.7 secs

     Computing kpt #:   167  of   202
     c_bands:  1 eigenvalues not converged
     total cpu time spent up to now is    24926.9 secs

     Computing kpt #:   168  of   202
     total cpu time spent up to now is    25071.8 secs

     Computing kpt #:   169  of   202
     total cpu time spent up to now is    25208.4 secs

     Computing kpt #:   170  of   202
     total cpu time spent up to now is    25353.1 secs

     Computing kpt #:   171  of   202
     total cpu time spent up to now is    25489.1 secs

     Computing kpt #:   172  of   202
     c_bands:  1 eigenvalues not converged
     total cpu time spent up to now is    25645.0 secs

     Computing kpt #:   173  of   202
     c_bands:  2 eigenvalues not converged
     total cpu time spent up to now is    25802.1 secs

     Computing kpt #:   174  of   202
     total cpu time spent up to now is    25959.4 secs

     Computing kpt #:   175  of   202
     total cpu time spent up to now is    26096.7 secs

     Computing kpt #:   176  of   202
     total cpu time spent up to now is    26251.3 secs

     Computing kpt #:   177  of   202
     c_bands:  1 eigenvalues not converged
     total cpu time spent up to now is    26407.7 secs

     Computing kpt #:   178  of   202
     c_bands:  1 eigenvalues not converged
     total cpu time spent up to now is    26563.1 secs

     Computing kpt #:   179  of   202
     c_bands:  1 eigenvalues not converged
     total cpu time spent up to now is    26718.8 secs

     Computing kpt #:   180  of   202
     total cpu time spent up to now is    26873.1 secs

     Computing kpt #:   181  of   202
     c_bands:  1 eigenvalues not converged
     total cpu time spent up to now is    27028.4 secs

     Computing kpt #:   182  of   202
     c_bands:  1 eigenvalues not converged
     total cpu time spent up to now is    27183.5 secs

     Computing kpt #:   183  of   202
     total cpu time spent up to now is    27336.7 secs

     Computing kpt #:   184  of   202
     total cpu time spent up to now is    27490.6 secs

     Computing kpt #:   185  of   202
     total cpu time spent up to now is    27637.1 secs

     Computing kpt #:   186  of   202
     c_bands:  2 eigenvalues not converged
     total cpu time spent up to now is    27793.9 secs

     Computing kpt #:   187  of   202
     c_bands:  1 eigenvalues not converged
     total cpu time spent up to now is    27950.6 secs

     Computing kpt #:   188  of   202
     c_bands:  2 eigenvalues not converged
     total cpu time spent up to now is    28107.8 secs

     Computing kpt #:   189  of   202
     c_bands:  2 eigenvalues not converged
     total cpu time spent up to now is    28264.3 secs

     Computing kpt #:   190  of   202
     c_bands:  1 eigenvalues not converged
     total cpu time spent up to now is    28420.4 secs

     Computing kpt #:   191  of   202
     total cpu time spent up to now is    28575.1 secs

     Computing kpt #:   192  of   202
     total cpu time spent up to now is    28730.4 secs

     Computing kpt #:   193  of   202
     total cpu time spent up to now is    28866.3 secs

     Computing kpt #:   194  of   202
     c_bands:  1 eigenvalues not converged
     total cpu time spent up to now is    29022.1 secs

     Computing kpt #:   195  of   202
     c_bands:  1 eigenvalues not converged
     total cpu time spent up to now is    29179.0 secs

     Computing kpt #:   196  of   202
     total cpu time spent up to now is    29324.2 secs

     Computing kpt #:   197  of   202
     total cpu time spent up to now is    29461.2 secs

     Computing kpt #:   198  of   202
     c_bands:  1 eigenvalues not converged
     total cpu time spent up to now is    29616.6 secs

     Computing kpt #:   199  of   202
     c_bands:  1 eigenvalues not converged
     total cpu time spent up to now is    29772.3 secs

     Computing kpt #:   200  of   202
     total cpu time spent up to now is    29908.4 secs

     Computing kpt #:   201  of   202
     total cpu time spent up to now is    30044.5 secs

     Computing kpt #:   202  of   202
     total cpu time spent up to now is    30180.9 secs

     ethr =  2.02E-12,  avg # of iterations = 94.5

     total cpu time spent up to now is    30180.9 secs

     End of band structure calculation

 ------ SPIN UP ------------


          k = 0.0000 0.0000 0.0000 ( 35361 PWs)   bands (ev):

  -100.5254-100.5254-100.5253-100.5253-100.2265-100.2265-100.2264-100.2264
  -100.0745-100.0745-100.0743-100.0743 -58.5531 -58.5531 -58.5531 -58.5531
   -58.5530 -58.5530 -58.5530 -58.5530 -58.2090 -58.2090 -58.2090 -58.2090
   -58.2090 -58.2090 -58.2090 -58.2090 -58.1363 -58.1363 -58.1361 -58.1361
   -58.0289 -58.0289 -58.0288 -58.0288 -57.8637 -57.8637 -57.8636 -57.8636
   -57.8133 -57.8133 -57.8133 -57.8133 -57.8130 -57.8130 -57.8130 -57.8130
   -30.1353 -30.1173 -30.1173 -30.0999 -15.2641 -15.2580 -15.1178 -15.1178
   -15.1130 -15.1130 -15.0049 -14.9998 -10.9628 -10.9628 -10.9410 -10.8919
   -10.8919 -10.6227 -10.6227 -10.3464 -10.2215 -10.2215 -10.1970 -10.1970
    -7.8179  -7.0900  -7.0900  -6.9301  -6.9301  -6.7403  -6.7403  -6.6252
    -6.5290  -6.5290  -6.5106  -6.2050  -6.1609  -6.1609  -6.1563  -6.1563
    -6.0645  -6.0604  -6.0604  -5.9981  -5.9950  -5.9949  -5.7188  -5.6377
    -1.0034  -1.0034  -0.9897  -0.9897  -0.6329  -0.6118  -0.6078  -0.6078
    -0.4386  -0.4259  -0.4259  -0.3852  -0.2648  -0.2648  -0.1711  -0.1711
    -0.0948  -0.0948  -0.0922  -0.0922   0.1576   0.1576   0.1648   0.1648
     2.9639   3.5837   4.1142   4.1143   4.3852   4.3852   4.6687   4.7875
     4.8410   5.3413   5.3413   5.4170   5.5049   5.5192   5.5192   5.5583
     5.5583   5.6880   5.7202   5.7270   5.7270   5.8206   5.8206   5.8504
     5.8504   6.1256   6.1256   6.1375   6.1375   6.3414   6.3414   6.4400
     6.4400   6.4494   6.4494   6.6594   6.7754   6.7754   7.0288   7.0288
     7.0623   7.0623   7.0977   7.0984   7.1302   7.1485   7.1485   7.1485
     7.2722   7.2722   7.4872   7.4872   7.5609   7.5609   7.5697   7.5774
     7.5774   7.6028   7.6028   7.6449   7.6449   7.6463   7.6463   7.7137
     7.8826   7.8826   7.9351   7.9351   8.0588   8.0588   8.1053   8.2123
     8.2123   8.2923   8.4004   8.4004   8.4905   8.5814   8.5814   8.7525
     8.7525   8.7645   8.7645   8.8040   8.8374   8.8374   8.8688   8.8763
     8.8763   8.8772   8.8773   8.9281   8.9610   9.0109   9.0610   9.0612
     9.1532   9.1735   9.1820   9.1820   9.2231   9.2560   9.2560   9.2633
     9.2729   9.3573   9.3717   9.3717   9.4562   9.4562   9.4740   9.4740
     9.5109   9.6032   9.6033   9.6891   9.6891   9.8447   9.8447  10.1092
    10.2595  10.2595  10.3204  10.3204  10.6285  10.6285  10.7648  10.7648
    10.8620  10.8620  12.6598  12.6598  12.8877  12.9599  13.0835  13.4351
    13.7739  13.7739  13.8691  14.0209  14.1856  15.1141  15.1997  15.1997
    15.2161  15.2829  15.2830  15.6153  15.6153  15.8272  15.8684  16.2279
    16.2279  16.3418  16.3418  16.3943  16.3943  16.4920  16.4949  16.5358
    16.6388  16.6388  16.6533  16.6533  16.7123  16.7123  16.7686  16.9923
    17.1076  17.1076  17.6903  17.6903  17.7497  17.7497  17.7777  17.7777
    17.9249  17.9250  17.9661  17.9661  17.9966  17.9966  18.0047  18.1088
    18.1088  18.2719  18.4271  18.4274  18.5942  18.5942  18.6396  18.6483
    18.8731  18.8731  19.1065  19.1065  19.1553  19.1553  19.2363  19.2363
    19.2771  19.3543  19.3543  19.3820  19.4871  19.4871  19.5187  19.5187
    19.6057  19.6057  19.7473  19.7848  19.9550  19.9550  20.0291  20.0291
    20.0390  20.1714  20.1714  20.1746  20.1746  20.1939  20.1939  20.2254
    20.2254  20.5301  20.5479  20.6611  20.6676  20.6676  20.6730  20.6730
    20.6788  20.8223  20.8748  20.8836  20.8836  20.9129  20.9129  20.9336
    20.9336  20.9493  20.9725  20.9725  21.0162  21.0219  21.0389  21.0389
    21.0536  21.0536  21.0751  21.1306

          k = 0.0125 0.0000 0.0000 ( 35369 PWs)   bands (ev):

  -100.5254-100.5254-100.5253-100.5253-100.2265-100.2265-100.2264-100.2264
  -100.0745-100.0745-100.0743-100.0743 -58.5531 -58.5531 -58.5531 -58.5531
   -58.5530 -58.5530 -58.5530 -58.5530 -58.2090 -58.2090 -58.2090 -58.2090
   -58.2090 -58.2090 -58.2090 -58.2090 -58.1363 -58.1363 -58.1361 -58.1361
   -58.0289 -58.0289 -58.0288 -58.0288 -57.8637 -57.8637 -57.8636 -57.8636
   -57.8133 -57.8133 -57.8133 -57.8133 -57.8130 -57.8130 -57.8130 -57.8130
   -30.1353 -30.1173 -30.1173 -30.0999 -15.2641 -15.2580 -15.1179 -15.1178
   -15.1131 -15.1130 -15.0050 -14.9999 -10.9628 -10.9626 -10.9409 -10.8919
   -10.8916 -10.6228 -10.6226 -10.3465 -10.2219 -10.2215 -10.1974 -10.1970
    -7.8175  -7.0899  -7.0898  -6.9305  -6.9297  -6.7405  -6.7401  -6.6253
    -6.5289  -6.5288  -6.5105  -6.2051  -6.1611  -6.1610  -6.1563  -6.1562
    -6.0672  -6.0607  -6.0580  -5.9982  -5.9949  -5.9948  -5.7189  -5.6378
    -1.0031  -1.0031  -0.9894  -0.9894  -0.6328  -0.6118  -0.6078  -0.6077
    -0.4386  -0.4260  -0.4260  -0.3852  -0.2651  -0.2647  -0.1714  -0.1710
    -0.0948  -0.0947  -0.0922  -0.0921   0.1571   0.1575   0.1643   0.1647
     2.9645   3.5842   4.1142   4.1146   4.3852   4.3854   4.6690   4.7876
     4.8411   5.3411   5.3413   5.4171   5.5044   5.5194   5.5196   5.5581
     5.5581   5.6878   5.7201   5.7270   5.7270   5.8197   5.8205   5.8502
     5.8502   6.1255   6.1258   6.1359   6.1380   6.3417   6.3419   6.4382
     6.4402   6.4496   6.4497   6.6593   6.7747   6.7757   7.0284   7.0291
     7.0631   7.0639   7.0976   7.0978   7.1301   7.1480   7.1483   7.1491
     7.2723   7.2726   7.4869   7.4873   7.5555   7.5611   7.5729   7.5774
     7.5776   7.6028   7.6037   7.6447   7.6449   7.6462   7.6463   7.7153
     7.8820   7.8825   7.9353   7.9354   8.0586   8.0592   8.1055   8.2116
     8.2125   8.2923   8.4005   8.4012   8.4905   8.5798   8.5815   8.7500
     8.7525   8.7637   8.7641   8.8040   8.8372   8.8375   8.8697   8.8736
     8.8764   8.8774   8.8793   8.9284   8.9620   9.0109   9.0610   9.0612
     9.1532   9.1738   9.1821   9.1828   9.2250   9.2559   9.2564   9.2632
     9.2723   9.3568   9.3715   9.3716   9.4561   9.4561   9.4740   9.4742
     9.5107   9.6028   9.6035   9.6886   9.6891   9.8448   9.8464  10.1090
    10.2596  10.2596  10.3204  10.3205  10.6286  10.6296  10.7645  10.7646
    10.8617  10.8617  12.6602  12.6607  12.8869  12.9592  13.0844  13.4347
    13.7731  13.7754  13.8700  14.0207  14.1864  15.1151  15.1988  15.2001
    15.2166  15.2813  15.2830  15.6135  15.6153  15.8271  15.8692  16.2277
    16.2287  16.3414  16.3445  16.3942  16.3947  16.4929  16.4955  16.5351
    16.6377  16.6394  16.6478  16.6535  16.7113  16.7127  16.7732  16.9924
    17.1078  17.1079  17.6718  17.6894  17.7479  17.7495  17.7781  17.7960
    17.9165  17.9247  17.9646  17.9661  17.9935  18.0053  18.0056  18.1086
    18.1109  18.2744  18.4237  18.4286  18.5934  18.5984  18.6401  18.6491
    18.8733  18.8740  19.0780  19.1066  19.1539  19.1838  19.2343  19.2366
    19.2771  19.3534  19.3543  19.3817  19.4857  19.4872  19.5189  19.5191
    19.6057  19.6060  19.7477  19.7844  19.9521  19.9548  20.0266  20.0290
    20.0399  20.1690  20.1708  20.1747  20.1749  20.1944  20.1951  20.2253
    20.2256  20.5305  20.5481  20.6607  20.6672  20.6680  20.6733  20.6747
    20.6785  20.8221  20.8747  20.8830  20.8832  20.9130  20.9130  20.9334
    20.9334  20.9441  20.9724  20.9725  21.0150  21.0227  21.0347  21.0388
    21.0531  21.0539  21.0794  21.1305

          k = 0.0250 0.0000 0.0000 ( 35365 PWs)   bands (ev):

  -100.5254-100.5254-100.5253-100.5253-100.2265-100.2265-100.2264-100.2264
  -100.0745-100.0745-100.0743-100.0743 -58.5531 -58.5531 -58.5531 -58.5531
   -58.5530 -58.5530 -58.5530 -58.5530 -58.2090 -58.2090 -58.2090 -58.2090
   -58.2090 -58.2090 -58.2090 -58.2090 -58.1363 -58.1363 -58.1361 -58.1361
   -58.0289 -58.0289 -58.0288 -58.0288 -57.8637 -57.8637 -57.8636 -57.8636
   -57.8133 -57.8133 -57.8133 -57.8133 -57.8130 -57.8130 -57.8130 -57.8130
   -30.1352 -30.1173 -30.1173 -30.0999 -15.2639 -15.2578 -15.1181 -15.1176
   -15.1133 -15.1129 -15.0051 -15.0000 -10.9627 -10.9619 -10.9406 -10.8920
   -10.8910 -10.6232 -10.6223 -10.3469 -10.2230 -10.2215 -10.1984 -10.1971
    -7.8163  -7.0895  -7.0890  -6.9317  -6.9285  -6.7409  -6.7394  -6.6254
    -6.5285  -6.5281  -6.5102  -6.2055  -6.1617  -6.1612  -6.1564  -6.1560
    -6.0714  -6.0616  -6.0544  -5.9986  -5.9946  -5.9944  -5.7193  -5.6382
    -1.0022  -1.0021  -0.9885  -0.9883  -0.6326  -0.6119  -0.6079  -0.6077
    -0.4386  -0.4262  -0.4261  -0.3855  -0.2659  -0.2645  -0.1724  -0.1707
    -0.0950  -0.0944  -0.0921  -0.0918   0.1554   0.1572   0.1628   0.1644
     2.9660   3.5857   4.1139   4.1157   4.3852   4.3861   4.6698   4.7880
     4.8415   5.3405   5.3415   5.4171   5.5031   5.5199   5.5206   5.5575
     5.5578   5.6873   5.7201   5.7270   5.7271   5.8169   5.8204   5.8495
     5.8495   6.1251   6.1265   6.1311   6.1394   6.3424   6.3432   6.4329
     6.4409   6.4499   6.4505   6.6592   6.7726   6.7763   7.0272   7.0299
     7.0656   7.0687   7.0962   7.0970   7.1296   7.1466   7.1476   7.1508
     7.2726   7.2738   7.4863   7.4879   7.5454   7.5617   7.5769   7.5775
     7.5783   7.6028   7.6063   7.6441   7.6447   7.6458   7.6463   7.7200
     7.8804   7.8825   7.9359   7.9366   8.0580   8.0605   8.1062   8.2094
     8.2130   8.2923   8.4008   8.4034   8.4906   8.5753   8.5817   8.7429
     8.7525   8.7613   8.7628   8.8040   8.8368   8.8381   8.8698   8.8723
     8.8767   8.8781   8.8812   8.9293   8.9651   9.0109   9.0610   9.0613
     9.1530   9.1748   9.1824   9.1853   9.2311   9.2555   9.2576   9.2630
     9.2707   9.3553   9.3708   9.3711   9.4556   9.4558   9.4738   9.4747
     9.5101   9.6014   9.6041   9.6872   9.6892   9.8451   9.8516  10.1084
    10.2599  10.2601  10.3207  10.3209  10.6289  10.6329  10.7637  10.7639
    10.8610  10.8610  12.6612  12.6631  12.8846  12.9569  13.0868  13.4334
    13.7705  13.7797  13.8725  14.0203  14.1887  15.1181  15.1959  15.2012
    15.2181  15.2763  15.2830  15.6082  15.6155  15.8268  15.8715  16.2270
    16.2311  16.3404  16.3527  16.3940  16.3959  16.4955  16.4972  16.5331
    16.6335  16.6344  16.6411  16.6540  16.7082  16.7139  16.7851  16.9928
    17.1082  17.1089  17.6353  17.6865  17.7425  17.7487  17.7792  17.8319
    17.8979  17.9239  17.9599  17.9660  17.9847  18.0082  18.0249  18.1080
    18.1168  18.2819  18.4134  18.4330  18.5911  18.6103  18.6417  18.6514
    18.8739  18.8767  19.0341  19.1069  19.1493  19.2280  19.2281  19.2375
[...]
    -6.4541  -6.4487  -6.4486  -6.2687  -6.2612  -6.2352  -6.2352  -6.1487
    -6.1486  -6.0922  -6.0764  -6.0577  -5.9424  -5.9423  -5.7687  -5.7036
    -0.9280  -0.9108  -0.7994  -0.7460  -0.6149  -0.6126  -0.6126  -0.5885
    -0.4520  -0.4520  -0.4342  -0.4084  -0.3290  -0.3289  -0.2447  -0.2447
    -0.1951  -0.1846  -0.0066   0.0186   0.0283   0.0283   0.0555   0.0555
     3.2247   3.8231   4.1730   4.1730   4.4465   4.4466   4.8183   4.8462
     4.9003   5.2420   5.2809   5.3663   5.4401   5.4896   5.4896   5.5665
     5.5665   5.6181   5.6348   5.6348   5.7076   5.7250   5.7721   5.8067
     5.8068   5.9675   5.9675   6.1270   6.1574   6.1574   6.1692   6.4810
     6.4810   6.5349   6.5419   6.6293   6.6986   6.6986   6.8435   6.8443
     7.0041   7.0308   7.0308   7.0699   7.1599   7.1599   7.3227   7.3897
     7.3897   7.4430   7.4518   7.4518   7.4593   7.4593   7.5354   7.5725
     7.5818   7.6001   7.6001   7.6045   7.6292   7.6397   7.6687   7.9166
     7.9311   7.9311   8.0087   8.0749   8.0749   8.1406   8.1406   8.2170
     8.2171   8.2979   8.5128   8.5280   8.5282   8.5365   8.5546   8.5588
     8.5660   8.5661   8.6742   8.7702   8.7702   8.7916   8.8442   8.8442
     8.8813   8.9216   8.9216   8.9592   8.9911   9.0063   9.0305   9.0635
     9.0637   9.0959   9.1390   9.1754   9.1938   9.2405   9.2889   9.3032
     9.3199   9.3199   9.3375   9.3767   9.3767   9.4416   9.5233   9.5233
     9.5790   9.5959   9.5959   9.7402   9.8329   9.9694  10.2496  10.2496
    10.2907  10.2908  10.4291  10.4292  10.5703  10.6680  10.7566  10.8405
    10.9000  10.9001  12.5265  12.6133  12.9332  12.9333  13.3261  13.4500
    13.9358  13.9409  13.9526  14.2756  14.5756  14.9508  14.9508  15.0692
    15.0692  15.3783  15.3783  15.4225  15.4519  15.7766  16.1135  16.2214
    16.2269  16.3201  16.4819  16.4819  16.4879  16.4879  16.5141  16.5143
    16.5303  16.5303  16.6387  16.6387  16.7477  16.8049  17.0268  17.1422
    17.1422  17.2227  17.2227  17.2349  17.4112  17.4193  17.4193  17.5155
    17.7402  17.9587  17.9587  18.0225  18.0463  18.2121  18.2745  18.2745
    18.2761  18.2761  18.4015  18.4015  18.4138  18.5841  18.6744  18.8031
    18.8818  18.8822  18.8822  18.9633  18.9633  19.0566  19.0781  19.1070
    19.1879  19.1879  19.2410  19.2526  19.4053  19.4805  19.5499  19.5499
    19.6756  19.7507  19.7554  19.7554  19.8024  19.8177  19.8177  19.8658
    19.9339  19.9340  20.0955  20.1005  20.2762  20.2762  20.3117  20.3985
    20.4239  20.4339  20.4339  20.5549  20.6254  20.6326  20.6326  20.7070
    20.7663  20.7663  20.8165  20.8190  20.8492  20.8604  20.8723  20.8723
    20.8825  20.8825  20.8993  20.8993  20.9081  20.9238  20.9537  21.0146
    21.0146  21.0488  21.0691  21.0997

          k = 0.2125 0.2125 0.0000 ( 35301 PWs)   bands (ev):

  -100.5254-100.5254-100.5253-100.5253-100.2265-100.2265-100.2264-100.2264
  -100.0745-100.0745-100.0743-100.0743 -58.5530 -58.5530 -58.5530 -58.5530
   -58.5530 -58.5530 -58.5530 -58.5530 -58.2090 -58.2090 -58.2090 -58.2090
   -58.2089 -58.2089 -58.2089 -58.2089 -58.1363 -58.1363 -58.1361 -58.1361
   -58.0289 -58.0289 -58.0288 -58.0288 -57.8637 -57.8637 -57.8636 -57.8636
   -57.8132 -57.8132 -57.8132 -57.8132 -57.8130 -57.8130 -57.8130 -57.8130
   -30.1314 -30.1174 -30.1174 -30.1036 -15.2341 -15.2281 -15.1218 -15.1218
   -15.1168 -15.1168 -15.0302 -15.0251 -10.8902 -10.8902 -10.8803 -10.8433
   -10.8293 -10.6340 -10.6340 -10.4132 -10.3304 -10.3053 -10.2909 -10.2909
    -7.6120  -6.9850  -6.9850  -6.9313  -6.9313  -6.7406  -6.6878  -6.6437
    -6.4474  -6.4395  -6.4395  -6.2888  -6.2681  -6.2444  -6.2444  -6.1482
    -6.1482  -6.0963  -6.0824  -6.0643  -5.9366  -5.9365  -5.7739  -5.7108
    -0.9185  -0.9010  -0.7771  -0.7180  -0.6145  -0.6130  -0.6130  -0.5821
    -0.4552  -0.4552  -0.4333  -0.4102  -0.3383  -0.3383  -0.2556  -0.2556
    -0.2073  -0.1960   0.0008   0.0168   0.0168   0.0284   0.0471   0.0471
     3.2568   3.8525   4.1797   4.1797   4.4548   4.4548   4.8384   4.8534
     4.9075   5.2299   5.2531   5.3680   5.4441   5.4799   5.4799   5.5440
     5.5440   5.6057   5.6444   5.6444   5.7123   5.7262   5.7753   5.8042
     5.8043   5.9547   5.9548   6.1259   6.1319   6.1319   6.1748   6.4942
     6.4942   6.5447   6.5527   6.6258   6.6883   6.6883   6.8060   6.8119
     6.9914   7.0331   7.0331   7.0639   7.1569   7.1569   7.3116   7.4011
     7.4011   7.4320   7.4494   7.4494   7.4908   7.4908   7.5263   7.5697
     7.5742   7.5907   7.5907   7.6001   7.6286   7.6377   7.6762   7.9255
     7.9459   7.9459   7.9918   8.0830   8.0830   8.1533   8.1533   8.2323
     8.2323   8.3005   8.5068   8.5072   8.5137   8.5262   8.5657   8.5724
     8.5834   8.5834   8.6703   8.7615   8.7615   8.7898   8.8441   8.8441
     8.8807   8.9263   8.9263   8.9574   8.9750   9.0051   9.0064   9.0638
     9.0640   9.1009   9.1368   9.1402   9.1749   9.2388   9.2827   9.3146
     9.3269   9.3269   9.3314   9.3665   9.3665   9.4340   9.5135   9.5135
     9.5832   9.5862   9.5862   9.7906   9.8880   9.9491  10.2744  10.2745
    10.3101  10.3101  10.4461  10.4462  10.5511  10.6474  10.7563  10.8377
    10.9307  10.9308  12.4839  12.5729  12.9651  12.9651  13.3235  13.4908
    13.9317  13.9561  13.9769  14.3251  14.6248  14.9207  14.9208  15.0532
    15.0532  15.3579  15.3579  15.4395  15.4772  15.7729  16.0630  16.1872
    16.2668  16.3395  16.4769  16.4769  16.4907  16.4907  16.5241  16.5241
    16.5252  16.5457  16.6242  16.6242  16.7742  16.8351  17.0285  17.1404
    17.1404  17.2313  17.2313  17.2543  17.3844  17.3844  17.3972  17.4812
    17.7364  17.9313  17.9313  17.9979  18.0507  18.2188  18.2734  18.2735
    18.2897  18.2897  18.3765  18.3765  18.3926  18.5934  18.6791  18.7416
    18.8512  18.8512  18.9082  18.9575  18.9575  18.9888  19.0315  19.1273
    19.1665  19.1665  19.2309  19.2515  19.4209  19.5268  19.5643  19.5643
    19.6286  19.7602  19.7608  19.7759  19.7759  19.8421  19.8421  19.8701
    19.9344  19.9345  20.0915  20.1210  20.2852  20.2852  20.3345  20.3966
    20.4100  20.4484  20.4484  20.5441  20.6282  20.6282  20.6334  20.6975
    20.7616  20.7616  20.8083  20.8105  20.8507  20.8673  20.8765  20.8765
    20.8818  20.8818  20.8918  20.8963  20.8963  20.9188  20.9537  21.0120
    21.0120  21.0393  21.0624  21.0936

          k = 0.2250 0.2250 0.0000 ( 35309 PWs)   bands (ev):

  -100.5254-100.5254-100.5253-100.5253-100.2265-100.2265-100.2264-100.2264
  -100.0745-100.0745-100.0743-100.0743 -58.5530 -58.5530 -58.5530 -58.5530
   -58.5530 -58.5530 -58.5530 -58.5530 -58.2090 -58.2090 -58.2090 -58.2090
   -58.2089 -58.2089 -58.2089 -58.2089 -58.1363 -58.1363 -58.1361 -58.1361
   -58.0289 -58.0289 -58.0288 -58.0288 -57.8637 -57.8637 -57.8636 -57.8636
   -57.8132 -57.8132 -57.8132 -57.8132 -57.8130 -57.8130 -57.8130 -57.8130
   -30.1310 -30.1174 -30.1174 -30.1041 -15.2306 -15.2247 -15.1222 -15.1222
   -15.1172 -15.1172 -15.0331 -15.0280 -10.8817 -10.8817 -10.8732 -10.8375
   -10.8219 -10.6351 -10.6351 -10.4209 -10.3420 -10.3148 -10.3015 -10.3015
    -7.5889  -6.9732  -6.9732  -6.9313  -6.9313  -6.7404  -6.6816  -6.6458
    -6.4403  -6.4301  -6.4300  -6.3096  -6.2753  -6.2540  -6.2540  -6.1479
    -6.1478  -6.1006  -6.0887  -6.0710  -5.9306  -5.9306  -5.7791  -5.7181
    -0.9085  -0.8905  -0.7547  -0.6892  -0.6139  -0.6135  -0.6135  -0.5749
    -0.4585  -0.4585  -0.4323  -0.4119  -0.3484  -0.3484  -0.2671  -0.2671
    -0.2200  -0.2080   0.0057   0.0057   0.0079   0.0380   0.0392   0.0392
     3.2906   3.8832   4.1866   4.1866   4.4636   4.4637   4.8598   4.8611
     4.9149   5.2171   5.2240   5.3695   5.4487   5.4682   5.4683   5.5223
     5.5223   5.5930   5.6545   5.6545   5.7171   5.7275   5.7787   5.8021
     5.8021   5.9426   5.9426   6.1068   6.1068   6.1245   6.1808   6.5074
     6.5074   6.5543   6.5639   6.6227   6.6771   6.6771   6.7663   6.7785
     6.9780   7.0357   7.0357   7.0579   7.1532   7.1532   7.3008   7.4111
     7.4111   7.4206   7.4473   7.4473   7.5167   7.5206   7.5206   7.5663
     7.5665   7.5837   7.5837   7.5955   7.6278   7.6350   7.6840   7.9346
     7.9606   7.9606   7.9759   8.0896   8.0897   8.1670   8.1670   8.2502
     8.2503   8.3035   8.4843   8.4892   8.4981   8.5264   8.5752   8.5926
     8.6010   8.6010   8.6686   8.7528   8.7528   8.7880   8.8440   8.8441
     8.8802   8.9315   8.9316   8.9550   8.9613   8.9821   9.0034   9.0642
     9.0644   9.0985   9.1107   9.1345   9.1559   9.2370   9.2761   9.3248
     9.3258   9.3313   9.3313   9.3569   9.3569   9.4257   9.5035   9.5035
     9.5766   9.5766   9.5869   9.8421   9.9274   9.9437  10.2817  10.2818
    10.3468  10.3468  10.4647  10.4648  10.5321  10.6265  10.7561  10.8348
    10.9623  10.9624  12.4396  12.5310  12.9980  12.9980  13.3223  13.5325
    13.9226  13.9776  14.0028  14.3767  14.6766  14.8911  14.8912  15.0367
    15.0367  15.3372  15.3373  15.4542  15.5004  15.7709  16.0125  16.1529
    16.3078  16.3607  16.4645  16.4645  16.4930  16.4930  16.5253  16.5253
    16.5387  16.5778  16.6063  16.6063  16.8007  16.8658  17.0302  17.1414
    17.1414  17.2414  17.2414  17.2712  17.3501  17.3501  17.3848  17.4476
    17.7318  17.8997  17.8997  17.9727  18.0528  18.2234  18.2662  18.2662
    18.3003  18.3003  18.3571  18.3571  18.3690  18.6014  18.6722  18.6810
    18.8213  18.8213  18.9008  18.9345  18.9513  18.9513  19.0067  19.1419
    19.1488  19.1488  19.2220  19.2505  19.4439  19.5784  19.5788  19.5788
    19.5789  19.7284  19.7717  19.7959  19.7959  19.8644  19.8644  19.8739
    19.9379  19.9379  20.0892  20.1432  20.2944  20.2944  20.3570  20.3694
    20.4209  20.4620  20.4620  20.5347  20.6231  20.6231  20.6413  20.6860
    20.7580  20.7580  20.8008  20.8015  20.8410  20.8697  20.8697  20.8750
    20.8864  20.8905  20.8905  20.8938  20.8938  20.9139  20.9545  21.0096
    21.0096  21.0288  21.0557  21.0860

          k = 0.2375 0.2375 0.0000 ( 35299 PWs)   bands (ev):

  -100.5254-100.5254-100.5253-100.5253-100.2265-100.2265-100.2264-100.2264
  -100.0745-100.0745-100.0743-100.0743 -58.5530 -58.5530 -58.5530 -58.5530
   -58.5530 -58.5530 -58.5530 -58.5530 -58.2090 -58.2090 -58.2090 -58.2090
   -58.2089 -58.2089 -58.2089 -58.2089 -58.1363 -58.1363 -58.1361 -58.1361
   -58.0289 -58.0289 -58.0288 -58.0288 -57.8637 -57.8637 -57.8636 -57.8636
   -57.8132 -57.8132 -57.8132 -57.8132 -57.8130 -57.8130 -57.8130 -57.8130
   -30.1305 -30.1174 -30.1174 -30.1045 -15.2270 -15.2211 -15.1226 -15.1226
   -15.1176 -15.1176 -15.0363 -15.0312 -10.8728 -10.8728 -10.8658 -10.8313
   -10.8142 -10.6362 -10.6362 -10.4290 -10.3540 -10.3247 -10.3126 -10.3126
    -7.5649  -6.9609  -6.9609  -6.9313  -6.9313  -6.7400  -6.6751  -6.6481
    -6.4330  -6.4204  -6.4204  -6.3313  -6.2828  -6.2641  -6.2641  -6.1476
    -6.1476  -6.1052  -6.0951  -6.0778  -5.9246  -5.9246  -5.7843  -5.7255
    -0.8979  -0.8796  -0.7327  -0.6597  -0.6138  -0.6138  -0.6132  -0.5665
    -0.4621  -0.4621  -0.4310  -0.4136  -0.3592  -0.3592  -0.2793  -0.2793
    -0.2333  -0.2205  -0.0050  -0.0050   0.0144   0.0319   0.0319   0.0471
     3.3258   3.9153   4.1936   4.1937   4.4730   4.4731   4.8691   4.8826
     4.9226   5.1934   5.2038   5.3707   5.4534   5.4535   5.4539   5.5031
     5.5031   5.5800   5.6644   5.6644   5.7220   5.7291   5.7822   5.8003
     5.8004   5.9312   5.9312   6.0823   6.0823   6.1226   6.1872   6.5205
     6.5205   6.5628   6.5752   6.6208   6.6652   6.6652   6.7254   6.7434
     6.9639   7.0386   7.0387   7.0520   7.1487   7.1487   7.2902   7.4087
     7.4184   7.4184   7.4475   7.4475   7.5068   7.5423   7.5423   7.5582
     7.5631   7.5852   7.5852   7.5909   7.6266   7.6314   7.6921   7.9440
     7.9614   7.9749   7.9749   8.0950   8.0951   8.1817   8.1817   8.2704
     8.2705   8.3068   8.4613   8.4642   8.4857   8.5287   8.5864   8.6142
     8.6184   8.6185   8.6689   8.7443   8.7443   8.7862   8.8442   8.8442
     8.8799   8.9373   8.9374   8.9486   8.9521   8.9593   9.0010   9.0634
     9.0646   9.0647   9.1126   9.1322   9.1372   9.2351   9.2691   9.3175
     9.3304   9.3304   9.3370   9.3503   9.3503   9.4170   9.4932   9.4932
     9.5674   9.5674   9.5899   9.8946   9.9044   9.9999  10.2848  10.2849
    10.3868  10.3868  10.4852  10.4853  10.5132  10.6054  10.7561  10.8317
    10.9945  10.9946  12.3937  12.4875  13.0319  13.0319  13.3227  13.5745
    13.9140  14.0001  14.0301  14.4303  14.7311  14.8622  14.8623  15.0197
    15.0197  15.3164  15.3164  15.4656  15.5205  15.7712  15.9624  16.1195
    16.3495  16.3838  16.4508  16.4508  16.4879  16.4880  16.5353  16.5353
    16.5544  16.5857  16.5857  16.6106  16.8272  16.8968  17.0323  17.1445
    17.1445  17.2525  17.2525  17.2856  17.3165  17.3165  17.3736  17.4146
    17.7263  17.8647  17.8647  17.9465  18.0515  18.2259  18.2533  18.2533
    18.3056  18.3056  18.3426  18.3437  18.3437  18.5980  18.6079  18.6800
    18.7929  18.7929  18.8153  18.9464  18.9464  18.9603  18.9824  19.1345
    19.1345  19.1529  19.2147  19.2493  19.4719  19.5302  19.5935  19.5935
    19.6344  19.7014  19.7853  19.8147  19.8147  19.8776  19.8846  19.8846
    19.9444  19.9444  20.0888  20.1665  20.3043  20.3043  20.3424  20.3790
    20.4311  20.4749  20.4749  20.5271  20.6172  20.6172  20.6490  20.6729
    20.7556  20.7556  20.7894  20.7959  20.8312  20.8580  20.8621  20.8621
    20.8918  20.8918  20.8986  20.8986  20.9059  20.9091  20.9565  21.0074
    21.0074  21.0174  21.0489  21.0764

          k = 0.2500 0.2500 0.0000 ( 35277 PWs)   bands (ev):

  -100.5254-100.5254-100.5253-100.5253-100.2265-100.2265-100.2264-100.2264
  -100.0745-100.0745-100.0743-100.0743 -58.5530 -58.5530 -58.5530 -58.5530
   -58.5530 -58.5530 -58.5530 -58.5530 -58.2090 -58.2090 -58.2090 -58.2090
   -58.2089 -58.2089 -58.2089 -58.2089 -58.1363 -58.1363 -58.1361 -58.1361
   -58.0289 -58.0289 -58.0288 -58.0288 -57.8637 -57.8637 -57.8636 -57.8636
   -57.8132 -57.8132 -57.8132 -57.8132 -57.8130 -57.8130 -57.8130 -57.8130
   -30.1300 -30.1174 -30.1174 -30.1050 -15.2232 -15.2174 -15.1230 -15.1230
   -15.1180 -15.1180 -15.0395 -15.0344 -10.8634 -10.8634 -10.8580 -10.8247
   -10.8061 -10.6374 -10.6374 -10.4374 -10.3663 -10.3349 -10.3241 -10.3241
    -7.5399  -6.9481  -6.9481  -6.9313  -6.9313  -6.7396  -6.6684  -6.6504
    -6.4254  -6.4105  -6.4105  -6.3537  -6.2906  -6.2746  -6.2746  -6.1475
    -6.1475  -6.1100  -6.1017  -6.0846  -5.9185  -5.9185  -5.7895  -5.7329
    -0.8869  -0.8682  -0.7115  -0.6299  -0.6142  -0.6142  -0.6123  -0.5566
    -0.4659  -0.4659  -0.4293  -0.4152  -0.3706  -0.3706  -0.2918  -0.2918
    -0.2472  -0.2334  -0.0151  -0.0151   0.0203   0.0251   0.0251   0.0557
     3.3625   3.9487   4.2008   4.2008   4.4830   4.4830   4.8774   4.9069
     4.9306   5.1616   5.1897   5.3716   5.4349   5.4349   5.4596   5.4872
     5.4872   5.5667   5.6738   5.6738   5.7270   5.7308   5.7861   5.7991
     5.7991   5.9207   5.9207   6.0584   6.0584   6.1204   6.1939   6.5334
     6.5334   6.5690   6.5864   6.6214   6.6526   6.6526   6.6833   6.7068
     6.9492   7.0419   7.0419   7.0464   7.1434   7.1434   7.2800   7.3961
     7.4216   7.4216   7.4509   7.4509   7.4966   7.5476   7.5476   7.5499
     7.5592   7.5863   7.6038   7.6038   7.6254   7.6267   7.7004   7.9486
     7.9541   7.9890   7.9890   8.0995   8.0995   8.1972   8.1972   8.2924
     8.2924   8.3101   8.4379   8.4389   8.4708   8.5331   8.5988   8.6355
     8.6355   8.6366   8.6709   8.7362   8.7362   8.7844   8.8446   8.8446
     8.8798   8.9285   8.9438   8.9438   8.9467   8.9488   8.9976   9.0244
     9.0650   9.0652   9.1172   9.1193   9.1299   9.2330   9.2616   9.3097
     9.3223   9.3223   9.3481   9.3485   9.3485   9.4077   9.4826   9.4826
     9.5587   9.5587   9.5924   9.8801   9.9480  10.0564  10.2870  10.2871
    10.4258  10.4258  10.4946  10.5083  10.5084  10.5844  10.7563  10.8285
    11.0272  11.0273  12.3463  12.4427  13.0666  13.0666  13.3245  13.6161
    13.9067  14.0238  14.0589  14.4856  14.7883  14.8342  14.8343  15.0023
    15.0023  15.2954  15.2954  15.4727  15.5369  15.7747  15.9130  16.0878
    16.3914  16.4086  16.4359  16.4359  16.4799  16.4799  16.5497  16.5497
    16.5633  16.5633  16.5720  16.6439  16.8532  16.9279  17.0348  17.1489
    17.1490  17.2643  17.2643  17.2838  17.2838  17.2977  17.3636  17.3824
    17.7199  17.8270  17.8270  17.9184  18.0450  18.2263  18.2344  18.2344
    18.3052  18.3052  18.3132  18.3357  18.3357  18.5218  18.6127  18.6762
    18.7342  18.7664  18.7664  18.9447  18.9447  18.9586  18.9851  19.1229
    19.1229  19.1616  19.2090  19.2468  19.4877  19.5031  19.6082  19.6082
    19.6776  19.6911  19.8007  19.8317  19.8317  19.8813  19.9026  19.9026
    19.9539  19.9539  20.0904  20.1905  20.3150  20.3150  20.3160  20.4005
    20.4406  20.4871  20.4871  20.5221  20.6103  20.6103  20.6562  20.6587
    20.7540  20.7540  20.7757  20.7917  20.8214  20.8417  20.8541  20.8541
    20.8905  20.8905  20.9045  20.9061  20.9061  20.9255  20.9599  21.0050
    21.0055  21.0055  21.0422  21.0665

     Writing all to output data dir ./YBCO6/YBCO6.save/
 
     init_run     :    317.85s CPU    324.99s WALL (       1 calls)
     electrons    :  29521.56s CPU  29855.46s WALL (       1 calls)

     Called by init_run:
     wfcinit      :    312.88s CPU    319.31s WALL (       1 calls)
     wfcinit:atom :      3.15s CPU      5.10s WALL (     202 calls)
     wfcinit:wfcr :    574.93s CPU    580.76s WALL (     202 calls)
     potinit      :      0.15s CPU      0.25s WALL (       1 calls)
     hinit0       :      0.97s CPU      1.00s WALL (       1 calls)

     Called by electrons:
     c_bands      :  29521.55s CPU  29855.41s WALL (       1 calls)
     v_of_rho     :      0.05s CPU      0.06s WALL (       1 calls)
     v_h          :      0.02s CPU      0.02s WALL (       1 calls)
     v_xc         :      0.03s CPU      0.04s WALL (       1 calls)
     newd         :      3.61s CPU      4.15s WALL (       1 calls)

     Called by c_bands:
     init_us_2    :     10.22s CPU     10.88s WALL (     404 calls)
     init_us_2:cp :     10.22s CPU     10.87s WALL (     404 calls)
     cegterg      :  28878.85s CPU  29189.88s WALL (    1043 calls)

     Called by sum_band:

     Called by *egterg:
     cdiaghg      :   2789.04s CPU   2895.36s WALL (   19301 calls)
     cegterg:over :   3869.80s CPU   3896.88s WALL (   19099 calls)
     cegterg:upda :   2330.34s CPU   2357.31s WALL (   19099 calls)
     cegterg:last :   6114.80s CPU   6130.53s WALL (    6310 calls)
     cdiaghg:chol :     41.28s CPU     46.21s WALL (   19301 calls)
     cdiaghg:inve :     30.69s CPU     37.26s WALL (   19301 calls)
     cdiaghg:para :    599.87s CPU    663.09s WALL (   38602 calls)
     h_psi        :  10986.76s CPU  11087.90s WALL (   20344 calls)
     s_psi        :   2818.66s CPU   2821.40s WALL (   20546 calls)
     g_psi        :     56.70s CPU     56.78s WALL (   19099 calls)

     Called by h_psi:
     h_psi:calbec :   2660.79s CPU   2670.22s WALL (   20344 calls)
     vloc_psi     :   4707.18s CPU   4770.05s WALL (   20344 calls)
     add_vuspsi   :   2770.91s CPU   2771.15s WALL (   20344 calls)
     vhpsi        :    777.34s CPU    787.79s WALL (   20344 calls)

     General routines
     calbec       :   2925.19s CPU   2944.47s WALL (   40890 calls)
     fft          :      0.12s CPU      0.17s WALL (       9 calls)
     ffts         :      0.00s CPU      0.00s WALL (       2 calls)
     fftw         :   2531.83s CPU   2566.28s WALL ( 4935422 calls)
     interpolate  :      0.03s CPU      0.03s WALL (       2 calls)
     davcio       :      2.25s CPU     38.79s WALL (     808 calls)
 
     Parallel routines

     Hubbard U routines
     vhpsi        :    777.34s CPU    787.79s WALL (   20344 calls)
 
     PWSCF        :      8h17m CPU      8h23m WALL

 
   This run was terminated on:   6:39:37   3Jan2024            

=------------------------------------------------------------------------------=
   JOB DONE.
=------------------------------------------------------------------------------=
