
     Program PWSCF v.7.2 starts on 27Dec2023 at  1:47:10 

     This program is part of the open-source Quantum ESPRESSO suite
     for quantum simulation of materials; please cite
         "P. Giannozzi et al., J. Phys.:Condens. Matter 21 395502 (2009);
         "P. Giannozzi et al., J. Phys.:Condens. Matter 29 465901 (2017);
         "P. Giannozzi et al., J. Chem. Phys. 152 154105 (2020);
          URL http://www.quantum-espresso.org", 
     in publications or presentations arising from this work. More details at
     http://www.quantum-espresso.org/quote

     Parallel version (MPI), running on     4 processors

     MPI processes distributed on     1 nodes
     6424 MiB available memory on the printing compute node when the environment starts
 
     Waiting for input...
     Reading input from standard input
Warning: card &IONS ignored
Warning: card ION_DYNAMICS = 'BFGS' ignored
Warning: card / ignored
Warning: card &CELL ignored
Warning: card / ignored

     Current dimensions of program PWSCF are:
     Max number of different atomic species (ntypx) = 10
     Max number of k-points (npk) =  40000
     Max angular momentum in pseudopotentials (lmaxx) =  4

     Atomic positions and unit cell read from directory:
     ./YBCO6/YBCO6.save/
 
     Found identity + (  0.5000  0.5000  0.0000) symmetry
     This is a supercell, fractional translations are disabled
 
     R & G space division:  proc/nbgrp/npool/nimage =       4
     Subspace diagonalization in iterative solution of the eigenvalue problem:
     one sub-group per band group will be used
     custom distributed-memory algorithm (size of sub-group:  2*  2 procs)

 
     Parallelization info
     --------------------
     sticks:   dense  smooth     PW     G-vecs:    dense   smooth      PW
     Min        3113    1555    412               407767   144185   19666
     Max        3114    1556    413               407769   144196   19671
     Sum       12453    6221   1649              1631073   576751   78671
 
     Using Slab Decomposition
 


     bravais-lattice index     =            6
     lattice parameter (alat)  =      14.7534  a.u.
     unit-cell volume          =    4999.6511 (a.u.)^3
     number of atoms/cell      =           48
     number of atomic types    =            6
     number of electrons       =       496.00
     number of Kohn-Sham states=          298
     kinetic-energy cutoff     =      90.0000  Ry
     charge density cutoff     =     720.0000  Ry
     Exchange-correlation= SLA  PW   PBE  PBE
                           (   1   4   3   4   0   0   0)
     Hubbard projectors: ortho-atomic
     Hubbard parameters of DFT+U (Dudarev formulation) in eV:
     U(Cu1-3d) =  2.5000
     U(Cu2-3d) =  2.5000

     Internal variables: lda_plus_u = T, lda_plus_u_kind = 0

     celldm(1)=  14.753444  celldm(2)=   0.000000  celldm(3)=   1.556895
     celldm(4)=   0.000000  celldm(5)=   0.000000  celldm(6)=   0.000000

     crystal axes: (cart. coord. in units of alat)
               a(1) = (   1.000000   0.000000   0.000000 )  
               a(2) = (   0.000000   1.000000   0.000000 )  
               a(3) = (   0.000000   0.000000   1.556895 )  

     reciprocal axes: (cart. coord. in units 2 pi/alat)
               b(1) = (  1.000000  0.000000  0.000000 )  
               b(2) = (  0.000000  1.000000  0.000000 )  
               b(3) = (  0.000000  0.000000  0.642304 )  


     PseudoPot. # 1 for Y  read from file:
     ~/q-e/pseudo/all_pbe_UPF_v1.5/y_pbe_v1.4.uspp.F.UPF
     MD5 check sum: Not computed, couldn't open file
     Pseudo is Ultrasoft + core correction, Zval = 11.0
     Generated by new atomic code, or converted to UPF format
     Using radial grid of  885 points,  6 beta functions with: 
                l(1) =   0
                l(2) =   0
                l(3) =   1
                l(4) =   1
                l(5) =   2
                l(6) =   2
     Q(r) pseudized with  8 coefficients,  rinner =    1.200   1.200   1.200
                                                       1.200   1.200

     PseudoPot. # 2 for Ba read from file:
     ~/q-e/pseudo/all_pbe_UPF_v1.5/ba_pbe_v1.uspp.F.UPF
     MD5 check sum: Not computed, couldn't open file
     Pseudo is Ultrasoft + core correction, Zval = 10.0
     Generated by new atomic code, or converted to UPF format
     Using radial grid of  907 points,  7 beta functions with: 
                l(1) =   0
                l(2) =   0
                l(3) =   1
                l(4) =   1
                l(5) =   2
                l(6) =   2
                l(7) =   3
     Q(r) pseudized with  6 coefficients,  rinner =    1.700   1.700   1.700
                                                       1.700   1.700   1.700
                                                       1.700

     PseudoPot. # 3 for Cu read from file:
     ~/q-e/pseudo/all_pbe_UPF_v1.5/cu_pbe_v1.2.uspp.F.UPF
     MD5 check sum: Not computed, couldn't open file
     Pseudo is Ultrasoft + core correction, Zval = 19.0
     Generated by new atomic code, or converted to UPF format
     Using radial grid of  867 points,  6 beta functions with: 
                l(1) =   0
                l(2) =   0
                l(3) =   1
                l(4) =   1
                l(5) =   2
                l(6) =   2
     Q(r) pseudized with  8 coefficients,  rinner =    1.150   1.150   1.150
                                                       1.150   1.150

     PseudoPot. # 4 for Cu read from file:
     ~/q-e/pseudo/all_pbe_UPF_v1.5/cu_pbe_v1.2.uspp.F.UPF
     MD5 check sum: Not computed, couldn't open file
     Pseudo is Ultrasoft + core correction, Zval = 19.0
     Generated by new atomic code, or converted to UPF format
     Using radial grid of  867 points,  6 beta functions with: 
                l(1) =   0
                l(2) =   0
                l(3) =   1
                l(4) =   1
                l(5) =   2
                l(6) =   2
     Q(r) pseudized with  8 coefficients,  rinner =    1.150   1.150   1.150
                                                       1.150   1.150

     PseudoPot. # 5 for Cu read from file:
     ~/q-e/pseudo/all_pbe_UPF_v1.5/cu_pbe_v1.2.uspp.F.UPF
     MD5 check sum: Not computed, couldn't open file
     Pseudo is Ultrasoft + core correction, Zval = 19.0
     Generated by new atomic code, or converted to UPF format
     Using radial grid of  867 points,  6 beta functions with: 
                l(1) =   0
                l(2) =   0
                l(3) =   1
                l(4) =   1
                l(5) =   2
                l(6) =   2
     Q(r) pseudized with  8 coefficients,  rinner =    1.150   1.150   1.150
                                                       1.150   1.150

     PseudoPot. # 6 for O  read from file:
     ~/q-e/pseudo/all_pbe_UPF_v1.5/o_pbe_v1.2.uspp.F.UPF
     MD5 check sum: Not computed, couldn't open file
     Pseudo is Ultrasoft + core correction, Zval =  6.0
     Generated by new atomic code, or converted to UPF format
     Using radial grid of  737 points,  5 beta functions with: 
                l(1) =   0
                l(2) =   0
                l(3) =   1
                l(4) =   1
                l(5) =   2
     Q(r) pseudized with  8 coefficients,  rinner =    0.900   0.900   0.900
                                                       0.900   0.900

     atomic species   valence    mass     pseudopotential
     Y                11.00    88.90584     Y ( 1.00)
     Ba               10.00   137.32700     Ba( 1.00)
     Cu               19.00    63.54600     Cu( 1.00)
     Cu1              19.00    63.54600     Cu( 1.00)
     Cu2              19.00    63.54600     Cu( 1.00)
     O                 6.00    15.99900     O ( 1.00)

     Starting magnetic structure 
     atomic species   magnetization
     Y               0.000
     Ba              0.000
     Cu              0.000
     Cu1             0.100
     Cu2            -0.100
     O               0.000

      4 Sym. Ops. (no inversion) found


                                    s                        frac. trans.

      isym =  1     identity                                     

 cryst.   s( 1) = (     1          0          0      )
                  (     0          1          0      )
                  (     0          0          1      )

 cart.    s( 1) = (  1.0000000  0.0000000  0.0000000 )
                  (  0.0000000  1.0000000  0.0000000 )
                  (  0.0000000  0.0000000  1.0000000 )


      isym =  2     180 deg rotation - cart. axis [0,0,1]        

 cryst.   s( 2) = (    -1          0          0      )
                  (     0         -1          0      )
                  (     0          0          1      )

 cart.    s( 2) = ( -1.0000000  0.0000000  0.0000000 )
                  (  0.0000000 -1.0000000  0.0000000 )
                  (  0.0000000  0.0000000  1.0000000 )


      isym =  3     inv. 180 deg rotation - cart. axis [0,1,0]   

 cryst.   s( 3) = (     1          0          0      )
                  (     0         -1          0      )
                  (     0          0          1      )

 cart.    s( 3) = (  1.0000000  0.0000000  0.0000000 )
                  (  0.0000000 -1.0000000  0.0000000 )
                  (  0.0000000  0.0000000  1.0000000 )


      isym =  4     inv. 180 deg rotation - cart. axis [1,0,0]   

 cryst.   s( 4) = (    -1          0          0      )
                  (     0          1          0      )
                  (     0          0          1      )

 cart.    s( 4) = ( -1.0000000  0.0000000  0.0000000 )
                  (  0.0000000  1.0000000  0.0000000 )
                  (  0.0000000  0.0000000  1.0000000 )


     point group C_2v (mm2) 
     there are  4 classes
     the character table:

       E     C2    s_v   s_v' 
A_1    1.00  1.00  1.00  1.00
A_2    1.00  1.00 -1.00 -1.00
B_1    1.00 -1.00  1.00 -1.00
B_2    1.00 -1.00 -1.00  1.00

     the symmetry operations in each class and the name of the first element:

     E        1
          identity                                               
     C2       2
          180 deg rotation - cart. axis [0,0,1]                  
     s_v      4
          inv. 180 deg rotation - cart. axis [1,0,0]             
     s_v'     3
          inv. 180 deg rotation - cart. axis [0,1,0]             

   Cartesian axes

     site n.     atom                  positions (alat units)
         1        Y      tau(   1) = (   0.2500001   0.2500001   0.7784475  )
         2        Y      tau(   2) = (   0.2500001   0.7499999   0.7784475  )
         3        Y      tau(   3) = (   0.7499999   0.2500001   0.7784475  )
         4        Y      tau(   4) = (   0.7499999   0.7499999   0.7784475  )
         5        Ba     tau(   5) = (   0.2499997   0.2499998   0.3202107  )
         6        Ba     tau(   6) = (   0.2499997   0.2499998   1.2366849  )
         7        Ba     tau(   7) = (   0.2499997   0.7500002   0.3202107  )
         8        Ba     tau(   8) = (   0.2499997   0.7500002   1.2366849  )
         9        Ba     tau(   9) = (   0.7500003   0.2499998   0.3202107  )
        10        Ba     tau(  10) = (   0.7500003   0.2499998   1.2366849  )
        11        Ba     tau(  11) = (   0.7500003   0.7500002   0.3202107  )
        12        Ba     tau(  12) = (   0.7500003   0.7500002   1.2366849  )
        13        Cu     tau(  13) = (   0.0000000   0.0000000   0.0000003  )
        14        Cu1    tau(  14) = (   0.0000000   0.0000000   0.5826016  )
        15        Cu2    tau(  15) = (   0.0000000   0.0000000   0.9742935  )
        16        Cu     tau(  16) = (   0.0000000   0.5000000   0.0000004  )
        17        Cu2    tau(  17) = (   0.0000000   0.5000000   0.5826023  )
        18        Cu1    tau(  18) = (   0.0000000   0.5000000   0.9742924  )
        19        Cu     tau(  19) = (   0.5000000   0.0000000   0.0000003  )
        20        Cu2    tau(  20) = (   0.5000000   0.0000000   0.5826022  )
        21        Cu1    tau(  21) = (   0.5000000   0.0000000   0.9742926  )
        22        Cu     tau(  22) = (   0.5000000   0.5000000   0.0000004  )
        23        Cu1    tau(  23) = (   0.5000000   0.5000000   0.5826026  )
        24        Cu2    tau(  24) = (   0.5000000   0.5000000   0.9742925  )
        25        O      tau(  25) = (   0.0000000   0.0000000   0.2292807  )
        26        O      tau(  26) = (   0.0000000   0.0000000   1.3276159  )
        27        O      tau(  27) = (   0.5000000   0.0000000   0.2292811  )
        28        O      tau(  28) = (   0.5000000   0.0000000   1.3276154  )
        29        O      tau(  29) = (   0.0000000   0.5000000   0.2292814  )
        30        O      tau(  30) = (   0.0000000   0.5000000   1.3276153  )
        31        O      tau(  31) = (   0.5000000   0.5000000   0.2292814  )
        32        O      tau(  32) = (   0.5000000   0.5000000   1.3276151  )
        33        O      tau(  33) = (   0.2499993   0.0000000   0.5927738  )
        34        O      tau(  34) = (   0.2499993   0.0000000   0.9641212  )
        35        O      tau(  35) = (   0.2499993   0.5000000   0.5927739  )
        36        O      tau(  36) = (   0.2499993   0.5000000   0.9641211  )
        37        O      tau(  37) = (   0.7500007   0.0000000   0.5927738  )
        38        O      tau(  38) = (   0.7500007   0.0000000   0.9641212  )
        39        O      tau(  39) = (   0.7500007   0.5000000   0.5927739  )
        40        O      tau(  40) = (   0.7500007   0.5000000   0.9641211  )
        41        O      tau(  41) = (   0.0000000   0.2499993   0.5928121  )
        42        O      tau(  42) = (   0.0000000   0.2499993   0.9640829  )
        43        O      tau(  43) = (   0.5000000   0.2499993   0.5928122  )
        44        O      tau(  44) = (   0.5000000   0.2499993   0.9640828  )
        45        O      tau(  45) = (   0.0000000   0.7500007   0.5928121  )
        46        O      tau(  46) = (   0.0000000   0.7500007   0.9640829  )
        47        O      tau(  47) = (   0.5000000   0.7500007   0.5928122  )
        48        O      tau(  48) = (   0.5000000   0.7500007   0.9640828  )

   Crystallographic axes

     site n.     atom                  positions (cryst. coord.)
         1        Y      tau(   1) = (  0.2500001  0.2500001  0.4999998  )
         2        Y      tau(   2) = (  0.2500001  0.7499999  0.4999998  )
         3        Y      tau(   3) = (  0.7499999  0.2500001  0.4999998  )
         4        Y      tau(   4) = (  0.7499999  0.7499999  0.4999998  )
         5        Ba     tau(   5) = (  0.2499997  0.2499998  0.2056726  )
         6        Ba     tau(   6) = (  0.2499997  0.2499998  0.7943275  )
         7        Ba     tau(   7) = (  0.2499997  0.7500002  0.2056726  )
         8        Ba     tau(   8) = (  0.2499997  0.7500002  0.7943275  )
         9        Ba     tau(   9) = (  0.7500003  0.2499998  0.2056726  )
        10        Ba     tau(  10) = (  0.7500003  0.2499998  0.7943275  )
        11        Ba     tau(  11) = (  0.7500003  0.7500002  0.2056726  )
        12        Ba     tau(  12) = (  0.7500003  0.7500002  0.7943275  )
        13        Cu     tau(  13) = (  0.0000000  0.0000000  0.0000002  )
        14        Cu1    tau(  14) = (  0.0000000  0.0000000  0.3742073  )
        15        Cu2    tau(  15) = (  0.0000000  0.0000000  0.6257925  )
        16        Cu     tau(  16) = (  0.0000000  0.5000000  0.0000003  )
        17        Cu2    tau(  17) = (  0.0000000  0.5000000  0.3742077  )
        18        Cu1    tau(  18) = (  0.0000000  0.5000000  0.6257918  )
        19        Cu     tau(  19) = (  0.5000000  0.0000000  0.0000002  )
        20        Cu2    tau(  20) = (  0.5000000  0.0000000  0.3742077  )
        21        Cu1    tau(  21) = (  0.5000000  0.0000000  0.6257919  )
        22        Cu     tau(  22) = (  0.5000000  0.5000000  0.0000002  )
        23        Cu1    tau(  23) = (  0.5000000  0.5000000  0.3742079  )
        24        Cu2    tau(  24) = (  0.5000000  0.5000000  0.6257919  )
        25        O      tau(  25) = (  0.0000000  0.0000000  0.1472679  )
        26        O      tau(  26) = (  0.0000000  0.0000000  0.8527328  )
        27        O      tau(  27) = (  0.5000000  0.0000000  0.1472682  )
        28        O      tau(  28) = (  0.5000000  0.0000000  0.8527325  )
        29        O      tau(  29) = (  0.0000000  0.5000000  0.1472683  )
        30        O      tau(  30) = (  0.0000000  0.5000000  0.8527325  )
        31        O      tau(  31) = (  0.5000000  0.5000000  0.1472684  )
        32        O      tau(  32) = (  0.5000000  0.5000000  0.8527324  )
        33        O      tau(  33) = (  0.2499993  0.0000000  0.3807409  )
        34        O      tau(  34) = (  0.2499993  0.0000000  0.6192588  )
        35        O      tau(  35) = (  0.2499993  0.5000000  0.3807410  )
        36        O      tau(  36) = (  0.2499993  0.5000000  0.6192588  )
        37        O      tau(  37) = (  0.7500007  0.0000000  0.3807409  )
        38        O      tau(  38) = (  0.7500007  0.0000000  0.6192588  )
        39        O      tau(  39) = (  0.7500007  0.5000000  0.3807410  )
        40        O      tau(  40) = (  0.7500007  0.5000000  0.6192588  )
        41        O      tau(  41) = (  0.0000000  0.2499993  0.3807655  )
        42        O      tau(  42) = (  0.0000000  0.2499993  0.6192342  )
        43        O      tau(  43) = (  0.5000000  0.2499993  0.3807656  )
        44        O      tau(  44) = (  0.5000000  0.2499993  0.6192341  )
        45        O      tau(  45) = (  0.0000000  0.7500007  0.3807655  )
        46        O      tau(  46) = (  0.0000000  0.7500007  0.6192342  )
        47        O      tau(  47) = (  0.5000000  0.7500007  0.3807656  )
        48        O      tau(  48) = (  0.5000000  0.7500007  0.6192341  )

     number of k points=    32 (tetrahedron method)
                       cart. coord. in units 2pi/alat
        k(    1) = (   0.0625000   0.0625000   0.0802880), wk =   0.0312500
        k(    2) = (   0.0625000   0.0625000   0.2408640), wk =   0.0312500
        k(    3) = (   0.0625000   0.1875000   0.0802880), wk =   0.0312500
        k(    4) = (   0.0625000   0.1875000   0.2408640), wk =   0.0312500
        k(    5) = (   0.0625000   0.3125000   0.0802880), wk =   0.0312500
        k(    6) = (   0.0625000   0.3125000   0.2408640), wk =   0.0312500
        k(    7) = (   0.0625000   0.4375000   0.0802880), wk =   0.0312500
        k(    8) = (   0.0625000   0.4375000   0.2408640), wk =   0.0312500
        k(    9) = (   0.1875000   0.1875000   0.0802880), wk =   0.0312500
        k(   10) = (   0.1875000   0.1875000   0.2408640), wk =   0.0312500
        k(   11) = (   0.1875000   0.3125000   0.0802880), wk =   0.0312500
        k(   12) = (   0.1875000   0.3125000   0.2408640), wk =   0.0312500
        k(   13) = (   0.1875000   0.4375000   0.0802880), wk =   0.0312500
        k(   14) = (   0.1875000   0.4375000   0.2408640), wk =   0.0312500
        k(   15) = (   0.3125000   0.3125000   0.0802880), wk =   0.0312500
        k(   16) = (   0.3125000   0.3125000   0.2408640), wk =   0.0312500
        k(   17) = (   0.3125000   0.4375000   0.0802880), wk =   0.0312500
        k(   18) = (   0.3125000   0.4375000   0.2408640), wk =   0.0312500
        k(   19) = (   0.4375000   0.4375000   0.0802880), wk =   0.0312500
        k(   20) = (   0.4375000   0.4375000   0.2408640), wk =   0.0312500
        k(   21) = (   0.1875000   0.0625000  -0.0802880), wk =   0.0312500
        k(   22) = (   0.1875000   0.0625000  -0.2408640), wk =   0.0312500
        k(   23) = (   0.3125000   0.0625000  -0.0802880), wk =   0.0312500
        k(   24) = (   0.3125000   0.0625000  -0.2408640), wk =   0.0312500
        k(   25) = (   0.4375000   0.0625000  -0.0802880), wk =   0.0312500
        k(   26) = (   0.4375000   0.0625000  -0.2408640), wk =   0.0312500
        k(   27) = (   0.3125000   0.1875000  -0.0802880), wk =   0.0312500
        k(   28) = (   0.3125000   0.1875000  -0.2408640), wk =   0.0312500
        k(   29) = (   0.4375000   0.1875000  -0.0802880), wk =   0.0312500
        k(   30) = (   0.4375000   0.1875000  -0.2408640), wk =   0.0312500
        k(   31) = (   0.4375000   0.3125000  -0.0802880), wk =   0.0312500
        k(   32) = (   0.4375000   0.3125000  -0.2408640), wk =   0.0312500

                       cryst. coord.
        k(    1) = (   0.0625000   0.0625000   0.1250000), wk =   0.0312500
        k(    2) = (   0.0625000   0.0625000   0.3750000), wk =   0.0312500
        k(    3) = (   0.0625000   0.1875000   0.1250000), wk =   0.0312500
        k(    4) = (   0.0625000   0.1875000   0.3750000), wk =   0.0312500
        k(    5) = (   0.0625000   0.3125000   0.1250000), wk =   0.0312500
        k(    6) = (   0.0625000   0.3125000   0.3750000), wk =   0.0312500
        k(    7) = (   0.0625000   0.4375000   0.1250000), wk =   0.0312500
        k(    8) = (   0.0625000   0.4375000   0.3750000), wk =   0.0312500
        k(    9) = (   0.1875000   0.1875000   0.1250000), wk =   0.0312500
        k(   10) = (   0.1875000   0.1875000   0.3750000), wk =   0.0312500
        k(   11) = (   0.1875000   0.3125000   0.1250000), wk =   0.0312500
        k(   12) = (   0.1875000   0.3125000   0.3750000), wk =   0.0312500
        k(   13) = (   0.1875000   0.4375000   0.1250000), wk =   0.0312500
        k(   14) = (   0.1875000   0.4375000   0.3750000), wk =   0.0312500
        k(   15) = (   0.3125000   0.3125000   0.1250000), wk =   0.0312500
        k(   16) = (   0.3125000   0.3125000   0.3750000), wk =   0.0312500
        k(   17) = (   0.3125000   0.4375000   0.1250000), wk =   0.0312500
        k(   18) = (   0.3125000   0.4375000   0.3750000), wk =   0.0312500
        k(   19) = (   0.4375000   0.4375000   0.1250000), wk =   0.0312500
        k(   20) = (   0.4375000   0.4375000   0.3750000), wk =   0.0312500
        k(   21) = (   0.1875000   0.0625000  -0.1250000), wk =   0.0312500
        k(   22) = (   0.1875000   0.0625000  -0.3750000), wk =   0.0312500
        k(   23) = (   0.3125000   0.0625000  -0.1250000), wk =   0.0312500
        k(   24) = (   0.3125000   0.0625000  -0.3750000), wk =   0.0312500
        k(   25) = (   0.4375000   0.0625000  -0.1250000), wk =   0.0312500
        k(   26) = (   0.4375000   0.0625000  -0.3750000), wk =   0.0312500
        k(   27) = (   0.3125000   0.1875000  -0.1250000), wk =   0.0312500
        k(   28) = (   0.3125000   0.1875000  -0.3750000), wk =   0.0312500
        k(   29) = (   0.4375000   0.1875000  -0.1250000), wk =   0.0312500
        k(   30) = (   0.4375000   0.1875000  -0.3750000), wk =   0.0312500
        k(   31) = (   0.4375000   0.3125000  -0.1250000), wk =   0.0312500
        k(   32) = (   0.4375000   0.3125000  -0.3750000), wk =   0.0312500

     Dense  grid:  1631073 G-vectors     FFT dimensions: ( 128, 128, 200)

     Smooth grid:   576751 G-vectors     FFT dimensions: (  90,  90, 144)

     Dynamical RAM for                 wfc:      81.94 MB

     Dynamical RAM for     wfc (w. buffer):      81.94 MB

     Dynamical RAM for             U proj.:      11.00 MB

     Dynamical RAM for  U proj. (w. buff.):      11.00 MB

     Dynamical RAM for           str. fact:      37.33 MB

     Dynamical RAM for           local pot:       0.00 MB

     Dynamical RAM for          nlocal pot:     219.98 MB

     Dynamical RAM for                qrad:      24.11 MB

     Dynamical RAM for          rho,v,vnew:      74.83 MB

     Dynamical RAM for           G-vectors:      24.43 MB

     Dynamical RAM for          h,s,v(r/c):       4.07 MB

     Dynamical RAM for          <psi|beta>:       3.64 MB

     Dynamical RAM for                 psi:     163.89 MB

     Dynamical RAM for                hpsi:     163.89 MB

     Dynamical RAM for                spsi:     163.89 MB

     Dynamical RAM for      wfcinit/wfcrot:     228.20 MB

     Dynamical RAM for           addusdens:    2345.71 MB

     Estimated static dynamical RAM per process >     554.69 MB

     Estimated max dynamical RAM per process >       2.83 GB

     Estimated total dynamical RAM >      11.33 GB
     Generating pointlists ...
     new r_m :   0.1284 (alat units)  1.8950 (a.u.) for type    1
     new r_m :   0.1506 (alat units)  2.2217 (a.u.) for type    2
     new r_m :   0.0946 (alat units)  1.3954 (a.u.) for type    3
     new r_m :   0.1032 (alat units)  1.5227 (a.u.) for type    4
     new r_m :   0.1032 (alat units)  1.5227 (a.u.) for type    5
     new r_m :   0.0946 (alat units)  1.3954 (a.u.) for type    6

     The potential is recalculated from file :
     ./YBCO6/YBCO6.save/charge-density


     negative rho (up, down):  3.477E-01 3.477E-01

     HUBBARD ENERGY =    0.3710  (Ry)

     STARTING HUBBARD OCCUPATIONS:

     =================== HUBBARD OCCUPATIONS ===================
     ------------------------ ATOM   14 ------------------------
     Tr[ns( 14)] (up, down, total) =   4.83059  4.47693  9.30752
     Atomic magnetic moment for atom  14 =   0.35366
     SPIN  1
     eigenvalues:
       0.921  0.949  0.985  0.985  0.990
     eigenvectors (columns):
      -0.000  1.000 -0.000 -0.000  0.000
      -0.000  0.000  0.000  1.000  0.000
      -0.000  0.000  1.000 -0.000  0.000
       1.000  0.000  0.000  0.000 -0.000
       0.000 -0.000 -0.000 -0.000  1.000
     occupation matrix ns (before diag.):
       0.949 -0.000 -0.000  0.000  0.000
      -0.000  0.985 -0.000  0.000  0.000
      -0.000 -0.000  0.985  0.000  0.000
       0.000  0.000  0.000  0.921 -0.000
       0.000  0.000  0.000 -0.000  0.990
     SPIN  2
     eigenvalues:
       0.583  0.936  0.984  0.984  0.990
     eigenvectors (columns):
      -0.000  1.000 -0.000 -0.000  0.000
      -0.000  0.000  0.000  1.000  0.000
      -0.000  0.000  1.000 -0.000  0.000
       1.000  0.000  0.000  0.000 -0.000
       0.000 -0.000 -0.000 -0.000  1.000
     occupation matrix ns (before diag.):
       0.936 -0.000 -0.000  0.000  0.000
      -0.000  0.984 -0.000  0.000  0.000
      -0.000 -0.000  0.984  0.000  0.000
       0.000  0.000  0.000  0.583 -0.000
       0.000  0.000  0.000 -0.000  0.990
     ------------------------ ATOM   15 ------------------------
     Tr[ns( 15)] (up, down, total) =   4.47693  4.83059  9.30752
     Atomic magnetic moment for atom  15 =  -0.35366
     SPIN  1
     eigenvalues:
       0.583  0.936  0.984  0.984  0.990
     eigenvectors (columns):
      -0.000  1.000 -0.000 -0.000  0.000
      -0.000  0.000  0.000  1.000  0.000
      -0.000  0.000  1.000 -0.000  0.000
       1.000  0.000  0.000  0.000 -0.000
       0.000 -0.000 -0.000 -0.000  1.000
     occupation matrix ns (before diag.):
       0.936 -0.000 -0.000  0.000  0.000
      -0.000  0.984 -0.000  0.000  0.000
      -0.000 -0.000  0.984  0.000  0.000
       0.000  0.000  0.000  0.583 -0.000
       0.000  0.000  0.000 -0.000  0.990
     SPIN  2
     eigenvalues:
       0.921  0.949  0.985  0.985  0.990
     eigenvectors (columns):
      -0.000  1.000 -0.000 -0.000  0.000
      -0.000  0.000  0.000  1.000  0.000
      -0.000  0.000  1.000 -0.000  0.000
       1.000  0.000  0.000  0.000 -0.000
       0.000 -0.000 -0.000 -0.000  1.000
     occupation matrix ns (before diag.):
       0.949 -0.000 -0.000  0.000  0.000
      -0.000  0.985 -0.000  0.000  0.000
      -0.000 -0.000  0.985  0.000  0.000
       0.000  0.000  0.000  0.921 -0.000
       0.000  0.000  0.000 -0.000  0.990
     ------------------------ ATOM   17 ------------------------
     Tr[ns( 17)] (up, down, total) =   4.47694  4.83059  9.30753
     Atomic magnetic moment for atom  17 =  -0.35366
     SPIN  1
     eigenvalues:
       0.583  0.936  0.984  0.984  0.990
     eigenvectors (columns):
      -0.000  1.000 -0.000 -0.000  0.000
      -0.000  0.000  0.000  1.000  0.000
      -0.000  0.000  1.000 -0.000  0.000
       1.000  0.000  0.000  0.000 -0.000
       0.000 -0.000 -0.000 -0.000  1.000
     occupation matrix ns (before diag.):
       0.936 -0.000 -0.000  0.000  0.000
      -0.000  0.984 -0.000  0.000  0.000
      -0.000 -0.000  0.984  0.000  0.000
       0.000  0.000  0.000  0.583 -0.000
       0.000  0.000  0.000 -0.000  0.990
     SPIN  2
     eigenvalues:
       0.921  0.949  0.985  0.985  0.990
     eigenvectors (columns):
      -0.000  1.000 -0.000 -0.000  0.000
      -0.000  0.000  0.000  1.000  0.000
      -0.000  0.000  1.000 -0.000  0.000
       1.000  0.000  0.000  0.000 -0.000
       0.000 -0.000 -0.000 -0.000  1.000
     occupation matrix ns (before diag.):
       0.949 -0.000 -0.000  0.000  0.000
      -0.000  0.985 -0.000  0.000  0.000
      -0.000 -0.000  0.985  0.000  0.000
       0.000  0.000  0.000  0.921 -0.000
       0.000  0.000  0.000 -0.000  0.990
     ------------------------ ATOM   18 ------------------------
     Tr[ns( 18)] (up, down, total) =   4.83059  4.47693  9.30752
     Atomic magnetic moment for atom  18 =   0.35366
     SPIN  1
     eigenvalues:
       0.921  0.949  0.985  0.985  0.990
     eigenvectors (columns):
      -0.000  1.000 -0.000 -0.000  0.000
      -0.000  0.000  0.000  1.000  0.000
      -0.000  0.000  1.000 -0.000  0.000
       1.000  0.000  0.000  0.000 -0.000
       0.000 -0.000 -0.000 -0.000  1.000
     occupation matrix ns (before diag.):
       0.949 -0.000 -0.000  0.000  0.000
      -0.000  0.985 -0.000  0.000  0.000
      -0.000 -0.000  0.985  0.000  0.000
       0.000  0.000  0.000  0.921 -0.000
       0.000  0.000  0.000 -0.000  0.990
     SPIN  2
     eigenvalues:
       0.583  0.936  0.984  0.984  0.990
     eigenvectors (columns):
      -0.000  1.000 -0.000 -0.000  0.000
      -0.000  0.000  0.000  1.000  0.000
      -0.000  0.000  1.000 -0.000  0.000
       1.000  0.000  0.000  0.000 -0.000
       0.000 -0.000 -0.000 -0.000  1.000
     occupation matrix ns (before diag.):
       0.936 -0.000 -0.000  0.000  0.000
      -0.000  0.984 -0.000  0.000  0.000
      -0.000 -0.000  0.984  0.000  0.000
       0.000  0.000  0.000  0.583 -0.000
       0.000  0.000  0.000 -0.000  0.990
     ------------------------ ATOM   20 ------------------------
     Tr[ns( 20)] (up, down, total) =   4.47693  4.83059  9.30753
     Atomic magnetic moment for atom  20 =  -0.35366
     SPIN  1
     eigenvalues:
       0.583  0.936  0.984  0.984  0.990
     eigenvectors (columns):
      -0.000  1.000 -0.000 -0.000  0.000
      -0.000  0.000  0.000  1.000  0.000
      -0.000  0.000  1.000 -0.000  0.000
       1.000  0.000  0.000  0.000 -0.000
       0.000 -0.000 -0.000 -0.000  1.000
     occupation matrix ns (before diag.):
       0.936 -0.000 -0.000  0.000  0.000
      -0.000  0.984 -0.000  0.000  0.000
      -0.000 -0.000  0.984  0.000  0.000
       0.000  0.000  0.000  0.583 -0.000
       0.000  0.000  0.000 -0.000  0.990
     SPIN  2
     eigenvalues:
       0.921  0.949  0.985  0.985  0.990
     eigenvectors (columns):
      -0.000  1.000 -0.000 -0.000  0.000
      -0.000  0.000  0.000  1.000  0.000
      -0.000  0.000  1.000 -0.000  0.000
       1.000  0.000  0.000  0.000 -0.000
       0.000 -0.000 -0.000 -0.000  1.000
     occupation matrix ns (before diag.):
       0.949 -0.000 -0.000  0.000  0.000
      -0.000  0.985 -0.000  0.000  0.000
      -0.000 -0.000  0.985  0.000  0.000
       0.000  0.000  0.000  0.921 -0.000
       0.000  0.000  0.000 -0.000  0.990
     ------------------------ ATOM   21 ------------------------
     Tr[ns( 21)] (up, down, total) =   4.83059  4.47693  9.30752
     Atomic magnetic moment for atom  21 =   0.35366
     SPIN  1
     eigenvalues:
       0.921  0.949  0.985  0.985  0.990
     eigenvectors (columns):
      -0.000  1.000 -0.000 -0.000  0.000
      -0.000  0.000  0.000  1.000  0.000
      -0.000  0.000  1.000 -0.000  0.000
       1.000  0.000  0.000  0.000 -0.000
       0.000 -0.000 -0.000 -0.000  1.000
     occupation matrix ns (before diag.):
       0.949 -0.000 -0.000  0.000  0.000
      -0.000  0.985 -0.000  0.000  0.000
      -0.000 -0.000  0.985  0.000  0.000
       0.000  0.000  0.000  0.921 -0.000
       0.000  0.000  0.000 -0.000  0.990
     SPIN  2
     eigenvalues:
       0.583  0.936  0.984  0.984  0.990
     eigenvectors (columns):
      -0.000  1.000 -0.000 -0.000  0.000
      -0.000  0.000  0.000  1.000  0.000
      -0.000  0.000  1.000 -0.000  0.000
       1.000  0.000  0.000  0.000 -0.000
       0.000 -0.000 -0.000 -0.000  1.000
     occupation matrix ns (before diag.):
       0.936 -0.000 -0.000  0.000  0.000
      -0.000  0.984 -0.000  0.000  0.000
      -0.000 -0.000  0.984  0.000  0.000
       0.000  0.000  0.000  0.583 -0.000
       0.000  0.000  0.000 -0.000  0.990
     ------------------------ ATOM   23 ------------------------
     Tr[ns( 23)] (up, down, total) =   4.83059  4.47693  9.30753
     Atomic magnetic moment for atom  23 =   0.35366
     SPIN  1
     eigenvalues:
       0.921  0.949  0.985  0.985  0.990
     eigenvectors (columns):
      -0.000  1.000 -0.000 -0.000  0.000
      -0.000  0.000  0.000  1.000  0.000
      -0.000  0.000  1.000 -0.000  0.000
       1.000  0.000  0.000  0.000 -0.000
       0.000 -0.000 -0.000 -0.000  1.000
     occupation matrix ns (before diag.):
       0.949 -0.000 -0.000  0.000  0.000
      -0.000  0.985 -0.000  0.000  0.000
      -0.000 -0.000  0.985  0.000  0.000
       0.000  0.000  0.000  0.921 -0.000
       0.000  0.000  0.000 -0.000  0.990
     SPIN  2
     eigenvalues:
       0.583  0.936  0.984  0.984  0.990
     eigenvectors (columns):
      -0.000  1.000 -0.000 -0.000  0.000
      -0.000  0.000  0.000  1.000  0.000
      -0.000  0.000  1.000 -0.000  0.000
       1.000  0.000  0.000  0.000 -0.000
       0.000 -0.000 -0.000 -0.000  1.000
     occupation matrix ns (before diag.):
       0.936 -0.000 -0.000  0.000  0.000
      -0.000  0.984 -0.000  0.000  0.000
      -0.000 -0.000  0.984  0.000  0.000
       0.000  0.000  0.000  0.583 -0.000
       0.000  0.000  0.000 -0.000  0.990
     ------------------------ ATOM   24 ------------------------
     Tr[ns( 24)] (up, down, total) =   4.47693  4.83059  9.30753
     Atomic magnetic moment for atom  24 =  -0.35366
     SPIN  1
     eigenvalues:
       0.583  0.936  0.984  0.984  0.990
     eigenvectors (columns):
      -0.000  1.000 -0.000 -0.000  0.000
      -0.000  0.000  0.000  1.000  0.000
      -0.000  0.000  1.000 -0.000  0.000
       1.000  0.000  0.000  0.000 -0.000
       0.000 -0.000 -0.000 -0.000  1.000
     occupation matrix ns (before diag.):
       0.936 -0.000 -0.000  0.000  0.000
      -0.000  0.984 -0.000  0.000  0.000
      -0.000 -0.000  0.984  0.000  0.000
       0.000  0.000  0.000  0.583 -0.000
       0.000  0.000  0.000 -0.000  0.990
     SPIN  2
     eigenvalues:
       0.921  0.949  0.985  0.985  0.990
     eigenvectors (columns):
      -0.000  1.000 -0.000 -0.000  0.000
      -0.000  0.000  0.000  1.000  0.000
      -0.000  0.000  1.000 -0.000  0.000
       1.000  0.000  0.000  0.000 -0.000
       0.000 -0.000 -0.000 -0.000  1.000
     occupation matrix ns (before diag.):
       0.949 -0.000 -0.000  0.000  0.000
      -0.000  0.985 -0.000  0.000  0.000
      -0.000 -0.000  0.985  0.000  0.000
       0.000  0.000  0.000  0.921 -0.000
       0.000  0.000  0.000 -0.000  0.990

     Number of occupied Hubbard levels =   74.4602

     Atomic wfc used for Hubbard projectors are orthogonalized

     Starting wfcs are  408 randomized atomic wfcs

     Band Structure Calculation
     Davidson diagonalization with overlap

     Computing kpt #:     1  of    64
     c_bands:  2 eigenvalues not converged
     total cpu time spent up to now is      441.4 secs

     Computing kpt #:     2  of    64
     c_bands:  2 eigenvalues not converged
     total cpu time spent up to now is      671.4 secs

     Computing kpt #:     3  of    64
     c_bands:  2 eigenvalues not converged
     total cpu time spent up to now is      905.1 secs

     Computing kpt #:     4  of    64
     c_bands:  1 eigenvalues not converged
     total cpu time spent up to now is     1135.0 secs

     Computing kpt #:     5  of    64
     total cpu time spent up to now is     1365.3 secs

     Computing kpt #:     6  of    64
     total cpu time spent up to now is     1568.5 secs

     Computing kpt #:     7  of    64
     total cpu time spent up to now is     1801.4 secs

     Computing kpt #:     8  of    64
     total cpu time spent up to now is     2005.8 secs

     Computing kpt #:     9  of    64
     c_bands:  2 eigenvalues not converged
     total cpu time spent up to now is     2238.1 secs

     Computing kpt #:    10  of    64
     total cpu time spent up to now is     2439.9 secs

     Computing kpt #:    11  of    64
     total cpu time spent up to now is     2639.7 secs

     Computing kpt #:    12  of    64
     c_bands:  1 eigenvalues not converged
     total cpu time spent up to now is     2873.4 secs

     Computing kpt #:    13  of    64
     total cpu time spent up to now is     3089.9 secs

     Computing kpt #:    14  of    64
     total cpu time spent up to now is     3306.1 secs

     Computing kpt #:    15  of    64
     total cpu time spent up to now is     3495.7 secs

     Computing kpt #:    16  of    64
     c_bands:  2 eigenvalues not converged
     total cpu time spent up to now is     3730.7 secs

     Computing kpt #:    17  of    64
     total cpu time spent up to now is     3947.6 secs

     Computing kpt #:    18  of    64
     total cpu time spent up to now is     4167.1 secs

     Computing kpt #:    19  of    64
     total cpu time spent up to now is     4370.8 secs

     Computing kpt #:    20  of    64
     c_bands:  1 eigenvalues not converged
     total cpu time spent up to now is     4604.7 secs

     Computing kpt #:    21  of    64
     c_bands:  2 eigenvalues not converged
     total cpu time spent up to now is     4836.8 secs

     Computing kpt #:    22  of    64
     c_bands:  1 eigenvalues not converged
     total cpu time spent up to now is     5066.9 secs

     Computing kpt #:    23  of    64
     total cpu time spent up to now is     5283.2 secs

     Computing kpt #:    24  of    64
     total cpu time spent up to now is     5485.2 secs

     Computing kpt #:    25  of    64
     total cpu time spent up to now is     5714.4 secs

     Computing kpt #:    26  of    64
     total cpu time spent up to now is     5917.6 secs

     Computing kpt #:    27  of    64
     total cpu time spent up to now is     6105.8 secs

     Computing kpt #:    28  of    64
     total cpu time spent up to now is     6320.5 secs

     Computing kpt #:    29  of    64
     total cpu time spent up to now is     6535.5 secs

     Computing kpt #:    30  of    64
     total cpu time spent up to now is     6752.4 secs

     Computing kpt #:    31  of    64
     total cpu time spent up to now is     6969.3 secs

     Computing kpt #:    32  of    64
     total cpu time spent up to now is     7173.4 secs

     Computing kpt #:    33  of    64
     c_bands:  3 eigenvalues not converged
     total cpu time spent up to now is     7406.3 secs

     Computing kpt #:    34  of    64
     c_bands:  2 eigenvalues not converged
     total cpu time spent up to now is     7634.2 secs

     Computing kpt #:    35  of    64
     c_bands:  2 eigenvalues not converged
     total cpu time spent up to now is     7865.3 secs

     Computing kpt #:    36  of    64
     c_bands:  1 eigenvalues not converged
     total cpu time spent up to now is     8094.4 secs

     Computing kpt #:    37  of    64
     total cpu time spent up to now is     8322.3 secs

     Computing kpt #:    38  of    64
     total cpu time spent up to now is     8535.8 secs

     Computing kpt #:    39  of    64
     total cpu time spent up to now is     8752.4 secs

     Computing kpt #:    40  of    64
     total cpu time spent up to now is     8955.2 secs

     Computing kpt #:    41  of    64
     c_bands:  2 eigenvalues not converged
     total cpu time spent up to now is     9186.4 secs

     Computing kpt #:    42  of    64
     total cpu time spent up to now is     9386.3 secs

     Computing kpt #:    43  of    64
     total cpu time spent up to now is     9574.4 secs

     Computing kpt #:    44  of    64
     total cpu time spent up to now is     9806.2 secs

     Computing kpt #:    45  of    64
     total cpu time spent up to now is    10036.6 secs

     Computing kpt #:    46  of    64
     total cpu time spent up to now is    10250.6 secs

     Computing kpt #:    47  of    64
     total cpu time spent up to now is    10437.3 secs

     Computing kpt #:    48  of    64
     c_bands:  2 eigenvalues not converged
     total cpu time spent up to now is    10670.7 secs

     Computing kpt #:    49  of    64
     total cpu time spent up to now is    10887.2 secs

     Computing kpt #:    50  of    64
     total cpu time spent up to now is    11091.8 secs

     Computing kpt #:    51  of    64
     total cpu time spent up to now is    11294.7 secs

     Computing kpt #:    52  of    64
     c_bands:  1 eigenvalues not converged
     total cpu time spent up to now is    11528.1 secs

     Computing kpt #:    53  of    64
     c_bands:  2 eigenvalues not converged
     total cpu time spent up to now is    11759.9 secs

     Computing kpt #:    54  of    64
     c_bands:  1 eigenvalues not converged
     total cpu time spent up to now is    11988.4 secs

     Computing kpt #:    55  of    64
     total cpu time spent up to now is    12214.8 secs

     Computing kpt #:    56  of    64
     total cpu time spent up to now is    12416.8 secs

     Computing kpt #:    57  of    64
     total cpu time spent up to now is    12644.9 secs

     Computing kpt #:    58  of    64
     total cpu time spent up to now is    12848.1 secs

     Computing kpt #:    59  of    64
     total cpu time spent up to now is    13046.4 secs

     Computing kpt #:    60  of    64
     total cpu time spent up to now is    13278.1 secs

     Computing kpt #:    61  of    64
     total cpu time spent up to now is    13493.0 secs

     Computing kpt #:    62  of    64
     c_bands:  1 eigenvalues not converged
     total cpu time spent up to now is    13725.4 secs

     Computing kpt #:    63  of    64
     total cpu time spent up to now is    13940.1 secs

     Computing kpt #:    64  of    64
     total cpu time spent up to now is    14155.2 secs

     ethr =  2.02E-12,  avg # of iterations = 95.0

     Warning: too many iterations in bisection
     ef =   9.868545 sumk = 496.000000 electrons

     total cpu time spent up to now is    14158.6 secs

     End of band structure calculation

 ------ SPIN UP ------------


          k = 0.0625 0.0625 0.0803 ( 72087 PWs)   bands (ev):

  -102.2892-102.2892-102.2892-102.2891-102.2201-102.2198-102.2197-102.2188
  -101.7434-101.7434-101.7434-101.7434 -59.8723 -59.8722 -59.8722 -59.8722
   -59.8722 -59.8722 -59.8722 -59.8721 -59.8218 -59.8214 -59.8214 -59.8205
   -59.5050 -59.5050 -59.5047 -59.5047 -59.5046 -59.5046 -59.5037 -59.5037
   -59.3196 -59.3196 -59.3196 -59.3196 -59.2207 -59.2207 -59.2207 -59.2206
   -59.2206 -59.2206 -59.2206 -59.2206 -59.0576 -59.0576 -59.0576 -59.0576
   -31.6278 -31.6170 -31.6170 -31.6066 -16.7537 -16.7520 -16.6634 -16.6634
   -16.6622 -16.6622 -16.5887 -16.5876 -12.0688 -12.0686 -12.0461 -12.0276
   -12.0268 -11.8565 -11.8564 -11.6933 -11.6079 -11.6068 -11.5915 -11.5914
    -8.4678  -7.8272  -7.8270  -7.7302  -7.7301  -7.6535  -7.5571  -7.5510
    -7.5508  -7.5507  -7.3481  -7.3230  -7.3224  -7.3099  -7.3097  -7.1882
    -7.1880  -7.1757  -7.1755  -7.1566  -7.1461  -7.1083  -7.0343  -7.0288
    -2.2849  -2.2793  -2.2775  -2.2702  -2.0313  -2.0115  -2.0113  -1.9583
    -1.9572  -1.9441  -1.9440  -1.9165  -1.9164  -1.8750  -1.8694  -1.8693
    -1.6478  -1.6462  -1.6364  -1.6341  -1.4983  -1.4983  -1.4957  -1.4957
     2.7030   3.2811   3.6260   3.6260   4.0853   4.0854   4.1975   4.3084
     4.3633   4.8208   4.8617   4.9220   4.9220   4.9914   5.0159   5.0370
     5.0523   5.0525   5.1205   5.1207   5.1208   5.3419   5.3544   5.4054
     5.4080   5.4753   5.4756   5.5522   5.5526   5.7257   5.7259   5.7906
     5.7920   6.0600   6.0600   6.2023   6.2026   6.2407   6.2408   6.2478
     6.2479   6.2704   6.3047   6.3419   6.3613   6.4080   6.4092   6.4507
     6.4992   6.5062   6.5127   6.5129   6.5685   6.5687   6.6477   6.6482
     6.6537   6.6996   6.7321   6.7488   6.7682   6.7984   6.7989   6.9437
     6.9437   7.0990   7.1118   7.1120   7.2511   7.2513   7.2757   7.3544
     7.3544   7.3676   7.3677   7.4196   7.4302   7.4453   7.5926   7.6734
     7.6851   7.7201   7.7209   7.7211   7.7443   7.7801   7.8361   7.8366
     7.8459   7.8461   7.8525   7.8795   7.9154   7.9408   7.9969   8.0306
     8.0309   8.0318   8.0849   8.1076   8.1079   8.1950   8.2165   8.2417
     8.3290   8.3888   8.3888   8.4171   8.4394   8.4661   8.5668   8.5669
     8.6445   8.6530   8.7293   8.7323   8.7325   8.7559   8.7560   8.9078
     9.0548   9.0549   9.0931   9.0932   9.3684   9.3719   9.3818   9.3839
     9.8950   9.8951  11.7159  11.7160  11.8340  11.9090  11.9596  12.0730
    12.7457  12.9221  13.0893  13.1726  13.1958  13.7052  13.8571  13.8573
    13.9123  13.9128  14.0513  14.1907  14.3777  14.3780  14.6146  14.6465
    14.8666  14.8668  14.8916  14.8918  14.9028  14.9031  14.9957  15.0302
    15.0385  15.0994  15.1233  15.1234  15.1315  15.5380  15.5381  15.5437
    15.6768  15.7457  16.1107  16.1112  16.2296  16.2858  16.2859  16.2922
    16.3108  16.3637

     occupation numbers 
     1.0000   1.0000   1.0000   1.0000   1.0000   1.0000   1.0000   1.0000
     1.0000   1.0000   1.0000   1.0000   1.0000   1.0000   1.0000   1.0000
     1.0000   1.0000   1.0000   1.0000   1.0000   1.0000   1.0000   1.0000
     1.0000   1.0000   1.0000   1.0000   1.0000   1.0000   1.0000   1.0000
     1.0000   1.0000   1.0000   1.0000   1.0000   1.0000   1.0000   1.0000
     1.0000   1.0000   1.0000   1.0000   1.0000   1.0000   1.0000   1.0000
     1.0000   1.0000   1.0000   1.0000   1.0000   1.0000   1.0000   1.0000
     1.0000   1.0000   1.0000   1.0000   1.0000   1.0000   1.0000   1.0000
     1.0000   1.0000   1.0000   1.0000   1.0000   1.0000   1.0000   1.0000
     1.0000   1.0000   1.0000   1.0000   1.0000   1.0000   1.0000   1.0000
     1.0000   1.0000   1.0000   1.0000   1.0000   1.0000   1.0000   1.0000
     1.0000   1.0000   1.0000   1.0000   1.0000   1.0000   1.0000   1.0000
     1.0000   1.0000   1.0000   1.0000   1.0000   1.0000   1.0000   1.0000
     1.0000   1.0000   1.0000   1.0000   1.0000   1.0000   1.0000   1.0000
     1.0000   1.0000   1.0000   1.0000   1.0000   1.0000   1.0000   1.0000
     1.0000   1.0000   1.0000   1.0000   1.0000   1.0000   1.0000   1.0000
     1.0000   1.0000   1.0000   1.0000   1.0000   1.0000   1.0000   1.0000
     1.0000   1.0000   1.0000   1.0000   1.0000   1.0000   1.0000   1.0000
     1.0000   1.0000   1.0000   1.0000   1.0000   1.0000   1.0000   1.0000
     1.0000   1.0000   1.0000   1.0000   1.0000   1.0000   1.0000   1.0000
     1.0000   1.0000   1.0000   1.0000   1.0000   1.0000   1.0000   1.0000
     1.0000   1.0000   1.0000   1.0000   1.0000   1.0000   1.0000   1.0000
     1.0000   1.0000   1.0000   1.0000   1.0000   1.0000   1.0000   1.0000
     1.0000   1.0000   1.0000   1.0000   1.0000   1.0000   1.0000   1.0000
     1.0000   1.0000   1.0000   1.0000   1.0000   1.0000   1.0000   1.0000
     1.0000   1.0000   1.0000   1.0000   1.0000   1.0000   1.0000   1.0000
     1.0000   1.0000   1.0000   1.0000   1.0000   1.0000   1.0000   1.0000
     1.0000   1.0000   1.0000   1.0000   1.0000   1.0000   1.0000   1.0000
     1.0000   1.0000   1.0000   1.0000   1.0000   1.0000   1.0000   1.0000
     1.0000   1.0000   1.0000   1.0000   1.0000   1.0000   1.0000   1.0000
     1.0000   1.0000   1.0000   1.0000   1.0000   1.0000   1.0000   1.0000
     0.0000   0.0000   0.0000   0.0000   0.0000   0.0000   0.0000   0.0000
     0.0000   0.0000   0.0000   0.0000   0.0000   0.0000   0.0000   0.0000
     0.0000   0.0000   0.0000   0.0000   0.0000   0.0000   0.0000   0.0000
     0.0000   0.0000   0.0000   0.0000   0.0000   0.0000   0.0000   0.0000
     0.0000   0.0000   0.0000   0.0000   0.0000   0.0000   0.0000   0.0000
     0.0000   0.0000   0.0000   0.0000   0.0000   0.0000   0.0000   0.0000
     0.0000   0.0000

          k = 0.0625 0.0625 0.2409 ( 72101 PWs)   bands (ev):

  -102.2892-102.2892-102.2892-102.2891-102.2201-102.2198-102.2197-102.2188
  -101.7434-101.7434-101.7434-101.7434 -59.8723 -59.8722 -59.8722 -59.8722
   -59.8722 -59.8722 -59.8722 -59.8721 -59.8218 -59.8214 -59.8214 -59.8205
   -59.5050 -59.5050 -59.5047 -59.5047 -59.5046 -59.5046 -59.5037 -59.5037
   -59.3196 -59.3196 -59.3196 -59.3196 -59.2207 -59.2207 -59.2207 -59.2206
   -59.2206 -59.2206 -59.2206 -59.2206 -59.0576 -59.0576 -59.0576 -59.0576
   -31.6278 -31.6170 -31.6170 -31.6066 -16.7547 -16.7509 -16.6642 -16.6642
   -16.6614 -16.6614 -16.5893 -16.5869 -12.0688 -12.0686 -12.0461 -12.0276
   -12.0268 -11.8565 -11.8564 -11.6933 -11.6079 -11.6068 -11.5915 -11.5914
    -8.4675  -7.8377  -7.8375  -7.7296  -7.7295  -7.6540  -7.5575  -7.5507
    -7.4878  -7.4876  -7.3945  -7.3942  -7.3481  -7.3228  -7.3200  -7.1841
    -7.1837  -7.1601  -7.1485  -7.1484  -7.1461  -7.1083  -7.0327  -7.0289
    -2.2849  -2.2793  -2.2768  -2.2708  -2.0099  -1.9954  -1.9953  -1.9792
    -1.9604  -1.9603  -1.9367  -1.9151  -1.9150  -1.8971  -1.8709  -1.8708
    -1.6490  -1.6451  -1.6378  -1.6327  -1.4994  -1.4994  -1.4946  -1.4946
     2.7097   3.2707   3.6271   3.6272   4.0847   4.0848   4.2044   4.3084
     4.3633   4.8147   4.8980   4.9185   4.9185   4.9960   5.0173   5.0378
     5.0521   5.0522   5.0883   5.1242   5.1243   5.3425   5.3536   5.4027
     5.4049   5.4746   5.4749   5.5513   5.5517   5.7840   5.7842   5.7979
     5.7993   6.0907   6.0908   6.1526   6.1526   6.1816   6.1818   6.2180
     6.2183   6.2395   6.2711   6.2718   6.3427   6.4014   6.4030   6.4122
     6.4776   6.4777   6.4986   6.5010   6.5817   6.5818   6.6585   6.6700
     6.6703   6.6985   6.7358   6.7487   6.7797   6.7802   6.9430   6.9430
     7.0862   7.1874   7.1876   7.2066   7.2868   7.2869   7.2874   7.3693
     7.3694   7.3911   7.3913   7.4321   7.4493   7.4851   7.5562   7.6072
     7.6794   7.6822   7.7095   7.7097   7.7251   7.7648   7.7650   7.7729
     7.8239   7.8454   7.8456   7.8876   7.9153   7.9295   7.9400   7.9970
     8.0244   8.0324   8.0326   8.0998   8.1000   8.1697   8.1880   8.2492
     8.2941   8.3978   8.3979   8.4121   8.4182   8.4392   8.5647   8.5648
     8.6652   8.6830   8.7426   8.7446   8.7446   8.8363   8.8366   8.9700
     8.9989   8.9989   9.0562   9.0562   9.3689   9.3703   9.3801   9.3858
     9.8826   9.8827  11.7506  11.7507  11.9091  11.9594  12.0419  12.2101
    12.5260  12.9653  13.0826  13.1425  13.1756  13.6162  13.7364  13.7370
    13.8978  13.8978  14.1661  14.2169  14.2630  14.3713  14.3717  14.6462
    14.7268  14.8620  14.8623  14.8808  14.9338  14.9339  14.9425  14.9427
    15.1213  15.1214  15.2159  15.2467  15.4601  15.5128  15.5128  15.6272
    15.6275  15.7458  15.7597  15.9124  16.1022  16.1026  16.1932  16.1941
    16.4624  16.4835

     occupation numbers 
     1.0000   1.0000   1.0000   1.0000   1.0000   1.0000   1.0000   1.0000
     1.0000   1.0000   1.0000   1.0000   1.0000   1.0000   1.0000   1.0000
     1.0000   1.0000   1.0000   1.0000   1.0000   1.0000   1.0000   1.0000
     1.0000   1.0000   1.0000   1.0000   1.0000   1.0000   1.0000   1.0000
     1.0000   1.0000   1.0000   1.0000   1.0000   1.0000   1.0000   1.0000
     1.0000   1.0000   1.0000   1.0000   1.0000   1.0000   1.0000   1.0000
     1.0000   1.0000   1.0000   1.0000   1.0000   1.0000   1.0000   1.0000
     1.0000   1.0000   1.0000   1.0000   1.0000   1.0000   1.0000   1.0000
     1.0000   1.0000   1.0000   1.0000   1.0000   1.0000   1.0000   1.0000
     1.0000   1.0000   1.0000   1.0000   1.0000   1.0000   1.0000   1.0000
     1.0000   1.0000   1.0000   1.0000   1.0000   1.0000   1.0000   1.0000
     1.0000   1.0000   1.0000   1.0000   1.0000   1.0000   1.0000   1.0000
     1.0000   1.0000   1.0000   1.0000   1.0000   1.0000   1.0000   1.0000
     1.0000   1.0000   1.0000   1.0000   1.0000   1.0000   1.0000   1.0000
     1.0000   1.0000   1.0000   1.0000   1.0000   1.0000   1.0000   1.0000
     1.0000   1.0000   1.0000   1.0000   1.0000   1.0000   1.0000   1.0000
     1.0000   1.0000   1.0000   1.0000   1.0000   1.0000   1.0000   1.0000
     1.0000   1.0000   1.0000   1.0000   1.0000   1.0000   1.0000   1.0000
     1.0000   1.0000   1.0000   1.0000   1.0000   1.0000   1.0000   1.0000
     1.0000   1.0000   1.0000   1.0000   1.0000   1.0000   1.0000   1.0000
     1.0000   1.0000   1.0000   1.0000   1.0000   1.0000   1.0000   1.0000
     1.0000   1.0000   1.0000   1.0000   1.0000   1.0000   1.0000   1.0000
     1.0000   1.0000   1.0000   1.0000   1.0000   1.0000   1.0000   1.0000
     1.0000   1.0000   1.0000   1.0000   1.0000   1.0000   1.0000   1.0000
     1.0000   1.0000   1.0000   1.0000   1.0000   1.0000   1.0000   1.0000
     1.0000   1.0000   1.0000   1.0000   1.0000   1.0000   1.0000   1.0000
     1.0000   1.0000   1.0000   1.0000   1.0000   1.0000   1.0000   1.0000
     1.0000   1.0000   1.0000   1.0000   1.0000   1.0000   1.0000   1.0000
     1.0000   1.0000   1.0000   1.0000   1.0000   1.0000   1.0000   1.0000
     1.0000   1.0000   1.0000   1.0000   1.0000   1.0000   1.0000   1.0000
     1.0000   1.0000   1.0000   1.0000   1.0000   1.0000   1.0000   1.0000
     0.0000   0.0000   0.0000   0.0000   0.0000   0.0000   0.0000   0.0000
     0.0000   0.0000   0.0000   0.0000   0.0000   0.0000   0.0000   0.0000
     0.0000   0.0000   0.0000   0.0000   0.0000   0.0000   0.0000   0.0000
     0.0000   0.0000   0.0000   0.0000   0.0000   0.0000   0.0000   0.0000
     0.0000   0.0000   0.0000   0.0000   0.0000   0.0000   0.0000   0.0000
     0.0000   0.0000   0.0000   0.0000   0.0000   0.0000   0.0000   0.0000
     0.0000   0.0000

          k = 0.0625 0.1875 0.0803 ( 72088 PWs)   bands (ev):

  -102.2892-102.2892-102.2892-102.2891-102.2201-102.2198-102.2197-102.2188
  -101.7434-101.7434-101.7434-101.7434 -59.8723 -59.8722 -59.8722 -59.8722
   -59.8722 -59.8722 -59.8722 -59.8721 -59.8218 -59.8214 -59.8214 -59.8205
   -59.5050 -59.5050 -59.5047 -59.5047 -59.5046 -59.5046 -59.5037 -59.5037
   -59.3196 -59.3196 -59.3196 -59.3196 -59.2207 -59.2207 -59.2207 -59.2206
   -59.2206 -59.2206 -59.2206 -59.2206 -59.0576 -59.0576 -59.0576 -59.0576
   -31.6270 -31.6179 -31.6162 -31.6074 -16.7469 -16.7453 -16.6704 -16.6692
   -16.6578 -16.6566 -16.5945 -16.5933 -12.0657 -12.0376 -12.0326 -12.0305
   -11.9973 -11.8720 -11.8447 -11.7065 -11.6477 -11.6288 -11.6060 -11.5926
    -8.4171  -7.8104  -7.8076  -7.8006  -7.6835  -7.6527  -7.5779  -7.5336
    -7.5235  -7.5197  -7.3433  -7.3419  -7.3307  -7.2986  -7.2975  -7.2118
    -7.1987  -7.1977  -7.1682  -7.1602  -7.1579  -7.1259  -7.0452  -7.0421
    -2.2582  -2.2505  -2.2324  -2.2189  -2.0191  -2.0152  -2.0141  -1.9653
    -1.9527  -1.9523  -1.9513  -1.9433  -1.8992  -1.8905  -1.8855  -1.8417
    -1.6691  -1.6638  -1.6251  -1.6215  -1.5638  -1.5577  -1.5093  -1.5067
     2.7993   3.3670   3.6242   3.6847   4.0964   4.1116   4.2527   4.3254
     4.3833   4.8320   4.8611   4.9437   4.9613   4.9721   4.9976   5.0165
     5.0455   5.0467   5.0939   5.1002   5.1113   5.2653   5.2920   5.3507
     5.3686   5.3841   5.4170   5.4464   5.6440   5.7574   5.7834   5.7929
     5.8082   5.8291   6.0832   6.1289   6.1419   6.1583   6.2078   6.2444
     6.2532   6.2605   6.2687   6.2752   6.3038   6.3722   6.3944   6.4799
     6.4880   6.4944   6.5248   6.5258   6.5864   6.6387   6.6392   6.6635
     6.6753   6.7185   6.7492   6.7787   6.7799   6.8072   6.8171   6.9561
     6.9873   7.0942   7.1266   7.1671   7.1840   7.2153   7.3682   7.3807
     7.3844   7.4032   7.4133   7.4235   7.4650   7.4801   7.4950   7.6069
     7.6654   7.7116   7.7268   7.7464   7.7608   7.7964   7.8384   7.8503
     7.8524   7.8693   7.9001   7.9100   7.9341   7.9342   7.9897   8.0012
     8.0150   8.0289   8.0629   8.0744   8.1186   8.1401   8.2033   8.3188
     8.3608   8.3791   8.4290   8.4796   8.4861   8.5152   8.5380   8.5541
     8.5615   8.5969   8.7014   8.7125   8.7594   8.8011   8.8773   8.9534
     9.0689   9.0730   9.0946   9.0975   9.3247   9.3357   9.3629   9.3697
     9.9699  10.0576  11.7624  11.7895  11.8196  11.8540  11.9907  12.1526
    12.7398  12.8983  13.0655  13.2240  13.3249  13.6865  13.7068  13.8043
    13.9133  13.9620  14.0700  14.2337  14.3047  14.3974  14.6292  14.7406
    14.7641  14.8159  14.8821  14.9392  14.9807  14.9819  14.9964  15.0114
    15.0444  15.1685  15.2004  15.2425  15.2862  15.4864  15.5564  15.5604
    15.5952  15.7366  15.8687  16.0039  16.0286  16.1233  16.1250  16.2201
    16.2906  16.3276

     occupation numbers 
     1.0000   1.0000   1.0000   1.0000   1.0000   1.0000   1.0000   1.0000
     1.0000   1.0000   1.0000   1.0000   1.0000   1.0000   1.0000   1.0000
     1.0000   1.0000   1.0000   1.0000   1.0000   1.0000   1.0000   1.0000
     1.0000   1.0000   1.0000   1.0000   1.0000   1.0000   1.0000   1.0000
     1.0000   1.0000   1.0000   1.0000   1.0000   1.0000   1.0000   1.0000
     1.0000   1.0000   1.0000   1.0000   1.0000   1.0000   1.0000   1.0000
     1.0000   1.0000   1.0000   1.0000   1.0000   1.0000   1.0000   1.0000
     1.0000   1.0000   1.0000   1.0000   1.0000   1.0000   1.0000   1.0000
     1.0000   1.0000   1.0000   1.0000   1.0000   1.0000   1.0000   1.0000
     1.0000   1.0000   1.0000   1.0000   1.0000   1.0000   1.0000   1.0000
     1.0000   1.0000   1.0000   1.0000   1.0000   1.0000   1.0000   1.0000
     1.0000   1.0000   1.0000   1.0000   1.0000   1.0000   1.0000   1.0000
     1.0000   1.0000   1.0000   1.0000   1.0000   1.0000   1.0000   1.0000
     1.0000   1.0000   1.0000   1.0000   1.0000   1.0000   1.0000   1.0000
     1.0000   1.0000   1.0000   1.0000   1.0000   1.0000   1.0000   1.0000
     1.0000   1.0000   1.0000   1.0000   1.0000   1.0000   1.0000   1.0000
     1.0000   1.0000   1.0000   1.0000   1.0000   1.0000   1.0000   1.0000
     1.0000   1.0000   1.0000   1.0000   1.0000   1.0000   1.0000   1.0000
     1.0000   1.0000   1.0000   1.0000   1.0000   1.0000   1.0000   1.0000
     1.0000   1.0000   1.0000   1.0000   1.0000   1.0000   1.0000   1.0000
     1.0000   1.0000   1.0000   1.0000   1.0000   1.0000   1.0000   1.0000
     1.0000   1.0000   1.0000   1.0000   1.0000   1.0000   1.0000   1.0000
     1.0000   1.0000   1.0000   1.0000   1.0000   1.0000   1.0000   1.0000
     1.0000   1.0000   1.0000   1.0000   1.0000   1.0000   1.0000   1.0000
     1.0000   1.0000   1.0000   1.0000   1.0000   1.0000   1.0000   1.0000
     1.0000   1.0000   1.0000   1.0000   1.0000   1.0000   1.0000   1.0000
     1.0000   1.0000   1.0000   1.0000   1.0000   1.0000   1.0000   1.0000
     1.0000   1.0000   1.0000   1.0000   1.0000   1.0000   1.0000   1.0000
     1.0000   1.0000   1.0000   1.0000   1.0000   1.0000   1.0000   1.0000
     1.0000   1.0000   1.0000   1.0000   1.0000   1.0000   1.0000   1.0000
     1.0000   1.0000   1.0000   1.0000   1.0000   1.0000   1.0000   1.0000
     0.0000   0.0000   0.0000   0.0000   0.0000   0.0000   0.0000   0.0000
     0.0000   0.0000   0.0000   0.0000   0.0000   0.0000   0.0000   0.0000
     0.0000   0.0000   0.0000   0.0000   0.0000   0.0000   0.0000   0.0000
     0.0000   0.0000   0.0000   0.0000   0.0000   0.0000   0.0000   0.0000
     0.0000   0.0000   0.0000   0.0000   0.0000   0.0000   0.0000   0.0000
     0.0000   0.0000   0.0000   0.0000   0.0000   0.0000   0.0000   0.0000
     0.0000   0.0000

          k = 0.0625 0.1875 0.2409 ( 72098 PWs)   bands (ev):

  -102.2892-102.2892-102.2892-102.2891-102.2201-102.2198-102.2197-102.2188
  -101.7434-101.7434-101.7434-101.7434 -59.8723 -59.8722 -59.8722 -59.8722
   -59.8722 -59.8722 -59.8722 -59.8721 -59.8218 -59.8214 -59.8214 -59.8205
   -59.5050 -59.5050 -59.5047 -59.5047 -59.5046 -59.5046 -59.5037 -59.5037
   -59.3196 -59.3196 -59.3196 -59.3196 -59.2207 -59.2207 -59.2207 -59.2206
   -59.2206 -59.2206 -59.2206 -59.2206 -59.0576 -59.0576 -59.0576 -59.0576
   -31.6270 -31.6179 -31.6162 -31.6074 -16.7480 -16.7442 -16.6712 -16.6684
   -16.6586 -16.6558 -16.5951 -16.5927 -12.0657 -12.0376 -12.0326 -12.0305
   -11.9973 -11.8720 -11.8447 -11.7065 -11.6477 -11.6288 -11.6060 -11.5926
    -8.4168  -7.8180  -7.8112  -7.8076  -7.6827  -7.6531  -7.5800  -7.5235
    -7.4726  -7.4660  -7.3798  -7.3718  -7.3401  -7.3341  -7.3306  -7.2113
    -7.2058  -7.1884  -7.1653  -7.1429  -7.1382  -7.1254  -7.0425  -7.0386
    -2.2579  -2.2508  -2.2285  -2.2222  -2.0020  -2.0006  -2.0004  -1.9722
    -1.9656  -1.9649  -1.9451  -1.9419  -1.9063  -1.9011  -1.8856  -1.8469
    -1.6692  -1.6636  -1.6264  -1.6202  -1.5622  -1.5594  -1.5105  -1.5056
     2.8062   3.3564   3.6265   3.6852   4.0961   4.1105   4.2593   4.3254
     4.3832   4.8262   4.9012   4.9453   4.9593   4.9781   5.0011   5.0164
     5.0459   5.0465   5.0536   5.1012   5.1065   5.2702   5.2875   5.3502
     5.3616   5.3829   5.4166   5.4437   5.6445   5.8055   5.8132   5.8241
     5.8259   5.8379   6.0994   6.1234   6.1410   6.1584   6.1722   6.1873
     6.2128   6.2138   6.2280   6.2482   6.2754   6.3709   6.3897   6.4185
     6.4271   6.4406   6.4820   6.5059   6.5621   6.6101   6.6707   6.6812
     6.7027   6.7465   6.7502   6.7888   6.8358   6.8447   6.9563   6.9882
     7.0825   7.1500   7.1891   7.2064   7.2516   7.2732   7.3815   7.3876
     7.3966   7.4111   7.4165   7.4292   7.4656   7.5032   7.5454   7.6152
     7.6641   7.6816   7.7039   7.7333   7.7513   7.7562   7.7780   7.8261
     7.8263   7.8398   7.8446   7.8507   7.9096   7.9230   7.9552   7.9906
     7.9962   8.0175   8.0217   8.0628   8.1150   8.1204   8.1698   8.3430
     8.3487   8.3793   8.4443   8.4693   8.4721   8.5169   8.5349   8.5448
     8.5644   8.6166   8.7431   8.7847   8.8006   8.8393   8.9273   8.9303
     9.0051   9.0171   9.0810   9.0905   9.3213   9.3316   9.3642   9.3660
     9.9594  10.0479  11.7633  11.8197  11.8207  11.8859  12.1832  12.3129
    12.5632  12.9023  13.1118  13.1767  13.2665  13.6283  13.7319  13.7709
    13.8043  13.8916  14.0063  14.2062  14.2860  14.3917  14.4756  14.6276
    14.6395  14.7770  14.8285  14.9099  14.9137  14.9504  15.0103  15.0667
    15.1478  15.2168  15.2869  15.3287  15.4744  15.4898  15.5516  15.5615
    15.6264  15.7759  15.9229  15.9842  16.0117  16.0298  16.1310  16.2006
    16.2110  16.4164

     occupation numbers 
     1.0000   1.0000   1.0000   1.0000   1.0000   1.0000   1.0000   1.0000
     1.0000   1.0000   1.0000   1.0000   1.0000   1.0000   1.0000   1.0000
     1.0000   1.0000   1.0000   1.0000   1.0000   1.0000   1.0000   1.0000
     1.0000   1.0000   1.0000   1.0000   1.0000   1.0000   1.0000   1.0000
     1.0000   1.0000   1.0000   1.0000   1.0000   1.0000   1.0000   1.0000
     1.0000   1.0000   1.0000   1.0000   1.0000   1.0000   1.0000   1.0000
     1.0000   1.0000   1.0000   1.0000   1.0000   1.0000   1.0000   1.0000
     1.0000   1.0000   1.0000   1.0000   1.0000   1.0000   1.0000   1.0000
     1.0000   1.0000   1.0000   1.0000   1.0000   1.0000   1.0000   1.0000
     1.0000   1.0000   1.0000   1.0000   1.0000   1.0000   1.0000   1.0000
     1.0000   1.0000   1.0000   1.0000   1.0000   1.0000   1.0000   1.0000
     1.0000   1.0000   1.0000   1.0000   1.0000   1.0000   1.0000   1.0000
     1.0000   1.0000   1.0000   1.0000   1.0000   1.0000   1.0000   1.0000
     1.0000   1.0000   1.0000   1.0000   1.0000   1.0000   1.0000   1.0000
     1.0000   1.0000   1.0000   1.0000   1.0000   1.0000   1.0000   1.0000
     1.0000   1.0000   1.0000   1.0000   1.0000   1.0000   1.0000   1.0000
     1.0000   1.0000   1.0000   1.0000   1.0000   1.0000   1.0000   1.0000
     1.0000   1.0000   1.0000   1.0000   1.0000   1.0000   1.0000   1.0000
     1.0000   1.0000   1.0000   1.0000   1.0000   1.0000   1.0000   1.0000
     1.0000   1.0000   1.0000   1.0000   1.0000   1.0000   1.0000   1.0000
     1.0000   1.0000   1.0000   1.0000   1.0000   1.0000   1.0000   1.0000
     1.0000   1.0000   1.0000   1.0000   1.0000   1.0000   1.0000   1.0000
     1.0000   1.0000   1.0000   1.0000   1.0000   1.0000   1.0000   1.0000
     1.0000   1.0000   1.0000   1.0000   1.0000   1.0000   1.0000   1.0000
     1.0000   1.0000   1.0000   1.0000   1.0000   1.0000   1.0000   1.0000
     1.0000   1.0000   1.0000   1.0000   1.0000   1.0000   1.0000   1.0000
     1.0000   1.0000   1.0000   1.0000   1.0000   1.0000   1.0000   1.0000
     1.0000   1.0000   1.0000   1.0000   1.0000   1.0000   1.0000   1.0000
     1.0000   1.0000   1.0000   1.0000   1.0000   1.0000   1.0000   1.0000
     1.0000   1.0000   1.0000   1.0000   1.0000   1.0000   1.0000   1.0000
     1.0000   1.0000   1.0000   1.0000   1.0000   1.0000   1.0000   1.0000
     0.0000   0.0000   0.0000   0.0000   0.0000   0.0000   0.0000   0.0000
     0.0000   0.0000   0.0000   0.0000   0.0000   0.0000   0.0000   0.0000
     0.0000   0.0000   0.0000   0.0000   0.0000   0.0000   0.0000   0.0000
     0.0000   0.0000   0.0000   0.0000   0.0000   0.0000   0.0000   0.0000
     0.0000   0.0000   0.0000   0.0000   0.0000   0.0000   0.0000   0.0000
     0.0000   0.0000   0.0000   0.0000   0.0000   0.0000   0.0000   0.0000
     0.0000   0.0000

          k = 0.0625 0.3125 0.0803 ( 72104 PWs)   bands (ev):

  -102.2892-102.2892-102.2892-102.2891-102.2201-102.2198-102.2197-102.2188
  -101.7434-101.7434-101.7434-101.7434 -59.8723 -59.8722 -59.8722 -59.8722
   -59.8722 -59.8722 -59.8722 -59.8721 -59.8218 -59.8214 -59.8214 -59.8205
   -59.5050 -59.5050 -59.5047 -59.5047 -59.5046 -59.5046 -59.5037 -59.5037
   -59.3196 -59.3196 -59.3196 -59.3196 -59.2207 -59.2207 -59.2207 -59.2206
   -59.2206 -59.2206 -59.2206 -59.2206 -59.0576 -59.0576 -59.0576 -59.0576
   -31.6255 -31.6194 -31.6148 -31.6088 -16.7344 -16.7329 -16.6833 -16.6820
   -16.6474 -16.6463 -16.6051 -16.6040 -12.0598 -12.0363 -12.0073 -11.9788
   -11.9411 -11.9000 -11.8228 -11.7306 -11.7192 -11.6955 -11.6038 -11.5949
    -8.3238  -7.9289  -7.7717  -7.7565  -7.6565  -7.6183  -7.6003  -7.5007
    -7.4812  -7.4707  -7.3779  -7.3657  -7.3161  -7.2875  -7.2755  -7.2711
    -7.2619  -7.2064  -7.1827  -7.1558  -7.1481  -7.1405  -7.0654  -7.0639
    -2.2059  -2.1928  -2.1551  -2.1301  -2.0229  -2.0146  -1.9929  -1.9923
    -1.9780  -1.9716  -1.9538  -1.9474  -1.9398  -1.9042  -1.8498  -1.8031
    -1.7055  -1.6897  -1.6792  -1.6668  -1.6068  -1.6032  -1.5295  -1.5268
     2.9765   3.5138   3.5671   3.7580   4.1452   4.1902   4.3539   4.3644
     4.4222   4.8301   4.8541   4.8953   4.9350   4.9660   4.9747   5.0075
     5.0095   5.0356   5.0499   5.0573   5.1015   5.1250   5.1694   5.1998
     5.3389   5.3480   5.3501   5.4375   5.5243   5.7506   5.8170   5.8353
     5.8572   5.8988   5.9820   6.0539   6.0614   6.1307   6.1639   6.1705
     6.1792   6.2484   6.2503   6.2940   6.3042   6.3127   6.3605   6.3719
     6.4464   6.4990   6.5205   6.5276   6.5653   6.5705   6.6709   6.6854
     6.7399   6.7597   6.7860   6.7985   6.8076   6.9029   6.9926   7.0064
     7.0596   7.0661   7.0842   7.1418   7.2183   7.2504   7.3074   7.3665
     7.3770   7.4060   7.4310   7.4616   7.5280   7.5942   7.6202   7.6213
     7.6900   7.6958   7.6990   7.7233   7.8100   7.8225   7.8267   7.8505
     7.8508   7.8616   7.8827   7.8929   7.9007   7.9324   7.9738   7.9922
     8.0421   8.0593   8.0829   8.1098   8.1324   8.1365   8.1995   8.2322
     8.2384   8.3231   8.3830   8.4628   8.4858   8.4932   8.4965   8.5363
     8.6173   8.6466   8.7432   8.7901   8.7975   8.8080   8.8438   9.0833
     9.0865   9.1196   9.1341   9.1583   9.2602   9.2768   9.3175   9.3287
    10.2049  10.3707  11.4768  11.5545  11.9294  12.0820  12.2612  12.3141
    12.6530  12.7132  13.3220  13.3366  13.3371  13.4337  13.5705  13.8285
    13.9319  13.9549  14.1056  14.4095  14.4331  14.4998  14.5326  14.5919
    14.5994  14.8619  14.8827  14.8864  14.8948  14.9358  15.0436  15.0663
    15.2410  15.2768  15.4023  15.4025  15.4479  15.5223  15.5772  15.6412
    15.6628  15.7121  15.7898  15.7941  15.8158  15.9844  16.0599  16.0702
    16.0848  16.1668

     occupation numbers 
     1.0000   1.0000   1.0000   1.0000   1.0000   1.0000   1.0000   1.0000
     1.0000   1.0000   1.0000   1.0000   1.0000   1.0000   1.0000   1.0000
     1.0000   1.0000   1.0000   1.0000   1.0000   1.0000   1.0000   1.0000
     1.0000   1.0000   1.0000   1.0000   1.0000   1.0000   1.0000   1.0000
     1.0000   1.0000   1.0000   1.0000   1.0000   1.0000   1.0000   1.0000
     1.0000   1.0000   1.0000   1.0000   1.0000   1.0000   1.0000   1.0000
     1.0000   1.0000   1.0000   1.0000   1.0000   1.0000   1.0000   1.0000
     1.0000   1.0000   1.0000   1.0000   1.0000   1.0000   1.0000   1.0000
     1.0000   1.0000   1.0000   1.0000   1.0000   1.0000   1.0000   1.0000
     1.0000   1.0000   1.0000   1.0000   1.0000   1.0000   1.0000   1.0000
     1.0000   1.0000   1.0000   1.0000   1.0000   1.0000   1.0000   1.0000
     1.0000   1.0000   1.0000   1.0000   1.0000   1.0000   1.0000   1.0000
     1.0000   1.0000   1.0000   1.0000   1.0000   1.0000   1.0000   1.0000
     1.0000   1.0000   1.0000   1.0000   1.0000   1.0000   1.0000   1.0000
     1.0000   1.0000   1.0000   1.0000   1.0000   1.0000   1.0000   1.0000
     1.0000   1.0000   1.0000   1.0000   1.0000   1.0000   1.0000   1.0000
     1.0000   1.0000   1.0000   1.0000   1.0000   1.0000   1.0000   1.0000
     1.0000   1.0000   1.0000   1.0000   1.0000   1.0000   1.0000   1.0000
     1.0000   1.0000   1.0000   1.0000   1.0000   1.0000   1.0000   1.0000
     1.0000   1.0000   1.0000   1.0000   1.0000   1.0000   1.0000   1.0000
     1.0000   1.0000   1.0000   1.0000   1.0000   1.0000   1.0000   1.0000
     1.0000   1.0000   1.0000   1.0000   1.0000   1.0000   1.0000   1.0000
     1.0000   1.0000   1.0000   1.0000   1.0000   1.0000   1.0000   1.0000
     1.0000   1.0000   1.0000   1.0000   1.0000   1.0000   1.0000   1.0000
     1.0000   1.0000   1.0000   1.0000   1.0000   1.0000   1.0000   1.0000
     1.0000   1.0000   1.0000   1.0000   1.0000   1.0000   1.0000   1.0000
     1.0000   1.0000   1.0000   1.0000   1.0000   1.0000   1.0000   1.0000
     1.0000   1.0000   1.0000   1.0000   1.0000   1.0000   1.0000   1.0000
     1.0000   1.0000   1.0000   1.0000   1.0000   1.0000   1.0000   1.0000
     1.0000   1.0000   1.0000   1.0000   1.0000   1.0000   1.0000   1.0000
     1.0000   1.0000   1.0000   1.0000   1.0000   1.0000   1.0000   1.0000
     0.0000   0.0000   0.0000   0.0000   0.0000   0.0000   0.0000   0.0000
     0.0000   0.0000   0.0000   0.0000   0.0000   0.0000   0.0000   0.0000
     0.0000   0.0000   0.0000   0.0000   0.0000   0.0000   0.0000   0.0000
     0.0000   0.0000   0.0000   0.0000   0.0000   0.0000   0.0000   0.0000
     0.0000   0.0000   0.0000   0.0000   0.0000   0.0000   0.0000   0.0000
     0.0000   0.0000   0.0000   0.0000   0.0000   0.0000   0.0000   0.0000
     0.0000   0.0000

          k = 0.0625 0.3125 0.2409 ( 72084 PWs)   bands (ev):

  -102.2892-102.2892-102.2892-102.2891-102.2201-102.2198-102.2197-102.2188
  -101.7434-101.7434-101.7434-101.7434 -59.8723 -59.8722 -59.8722 -59.8722
   -59.8722 -59.8722 -59.8722 -59.8721 -59.8218 -59.8214 -59.8214 -59.8205
   -59.5050 -59.5050 -59.5047 -59.5047 -59.5046 -59.5046 -59.5037 -59.5037
   -59.3196 -59.3196 -59.3196 -59.3196 -59.2207 -59.2207 -59.2207 -59.2206
   -59.2206 -59.2206 -59.2206 -59.2206 -59.0576 -59.0576 -59.0576 -59.0576
   -31.6255 -31.6194 -31.6148 -31.6088 -16.7354 -16.7318 -16.6842 -16.6812
   -16.6482 -16.6455 -16.6058 -16.6033 -12.0598 -12.0363 -12.0073 -11.9788
   -11.9411 -11.9001 -11.8229 -11.7306 -11.7192 -11.6955 -11.6038 -11.5949
    -8.3236  -7.9283  -7.7813  -7.7635  -7.6567  -7.6228  -7.5983  -7.4707
    -7.4454  -7.4427  -7.3607  -7.3520  -7.3514  -7.3404  -7.3232  -7.2795
    -7.2621  -7.2085  -7.1930  -7.1522  -7.1332  -7.1195  -7.0664  -7.0517
    -2.2055  -2.1934  -2.1471  -2.1367  -2.0139  -2.0027  -1.9897  -1.9800
    -1.9778  -1.9657  -1.9601  -1.9538  -1.9537  -1.9225  -1.8431  -1.8102
    -1.7033  -1.6918  -1.6760  -1.6702  -1.6080  -1.6020  -1.5307  -1.5256
     2.9835   3.5033   3.5715   3.7562   4.1465   4.1883   4.3545   4.3698
     4.4218   4.8487   4.8661   4.9016   4.9359   4.9656   4.9890   4.9905
     5.0182   5.0282   5.0505   5.0577   5.0735   5.1015   5.1631   5.1983
     5.3400   5.3499   5.3542   5.4482   5.5223   5.7527   5.8365   5.8744
     5.8811   5.9082   6.0028   6.0585   6.0636   6.1523   6.1657   6.1672
     6.1803   6.1946   6.2083   6.2222   6.2693   6.3153   6.3553   6.3788
     6.4164   6.4300   6.4440   6.4508   6.4608   6.5132   6.6911   6.7050
     6.7473   6.7649   6.8410   6.9464   6.9731   6.9854   7.0172   7.0330
     7.0631   7.1237   7.1530   7.1656   7.2675   7.3103   7.3104   7.3760
     7.3900   7.4059   7.4453   7.4911   7.5597   7.5791   7.5991   7.6168
     7.6324   7.6779   7.7108   7.7434   7.7440   7.7775   7.8219   7.8261
     7.8306   7.8339   7.8602   7.8882   7.8895   7.9011   7.9341   7.9447
     7.9751   7.9964   8.0904   8.1124   8.1213   8.1330   8.2126   8.2304
     8.2461   8.3175   8.3874   8.4709   8.4799   8.4924   8.5207   8.5212
     8.6493   8.6736   8.7602   8.7905   8.8217   8.8505   8.8573   9.0375
     9.0587   9.0916   9.1267   9.1575   9.2497   9.2730   9.3183   9.3240
    10.2003  10.3654  11.4779  11.5545  11.9567  12.1105  12.4176  12.5024
    12.6156  12.6675  13.1985  13.3872  13.4202  13.4933  13.5056  13.6987
    13.8868  13.9202  13.9382  14.1724  14.4117  14.4132  14.5065  14.5957
    14.6091  14.6395  14.7723  14.8118  14.9269  14.9954  15.0599  15.0651
    15.3001  15.3660  15.3978  15.4261  15.4337  15.5818  15.6365  15.6707
    15.7026  15.8076  15.8306  15.8359  15.9068  16.0879  16.1206  16.1652
    16.1858  16.1935

     occupation numbers 
     1.0000   1.0000   1.0000   1.0000   1.0000   1.0000   1.0000   1.0000
     1.0000   1.0000   1.0000   1.0000   1.0000   1.0000   1.0000   1.0000
     1.0000   1.0000   1.0000   1.0000   1.0000   1.0000   1.0000   1.0000
     1.0000   1.0000   1.0000   1.0000   1.0000   1.0000   1.0000   1.0000
     1.0000   1.0000   1.0000   1.0000   1.0000   1.0000   1.0000   1.0000
     1.0000   1.0000   1.0000   1.0000   1.0000   1.0000   1.0000   1.0000
     1.0000   1.0000   1.0000   1.0000   1.0000   1.0000   1.0000   1.0000
     1.0000   1.0000   1.0000   1.0000   1.0000   1.0000   1.0000   1.0000
     1.0000   1.0000   1.0000   1.0000   1.0000   1.0000   1.0000   1.0000
     1.0000   1.0000   1.0000   1.0000   1.0000   1.0000   1.0000   1.0000
     1.0000   1.0000   1.0000   1.0000   1.0000   1.0000   1.0000   1.0000
     1.0000   1.0000   1.0000   1.0000   1.0000   1.0000   1.0000   1.0000
     1.0000   1.0000   1.0000   1.0000   1.0000   1.0000   1.0000   1.0000
     1.0000   1.0000   1.0000   1.0000   1.0000   1.0000   1.0000   1.0000
     1.0000   1.0000   1.0000   1.0000   1.0000   1.0000   1.0000   1.0000
     1.0000   1.0000   1.0000   1.0000   1.0000   1.0000   1.0000   1.0000
     1.0000   1.0000   1.0000   1.0000   1.0000   1.0000   1.0000   1.0000
     1.0000   1.0000   1.0000   1.0000   1.0000   1.0000   1.0000   1.0000
     1.0000   1.0000   1.0000   1.0000   1.0000   1.0000   1.0000   1.0000
     1.0000   1.0000   1.0000   1.0000   1.0000   1.0000   1.0000   1.0000
     1.0000   1.0000   1.0000   1.0000   1.0000   1.0000   1.0000   1.0000
     1.0000   1.0000   1.0000   1.0000   1.0000   1.0000   1.0000   1.0000
     1.0000   1.0000   1.0000   1.0000   1.0000   1.0000   1.0000   1.0000
     1.0000   1.0000   1.0000   1.0000   1.0000   1.0000   1.0000   1.0000
     1.0000   1.0000   1.0000   1.0000   1.0000   1.0000   1.0000   1.0000
     1.0000   1.0000   1.0000   1.0000   1.0000   1.0000   1.0000   1.0000
     1.0000   1.0000   1.0000   1.0000   1.0000   1.0000   1.0000   1.0000
     1.0000   1.0000   1.0000   1.0000   1.0000   1.0000   1.0000   1.0000
     1.0000   1.0000   1.0000   1.0000   1.0000   1.0000   1.0000   1.0000
     1.0000   1.0000   1.0000   1.0000   1.0000   1.0000   1.0000   1.0000
     1.0000   1.0000   1.0000   1.0000   1.0000   1.0000   1.0000   1.0000
     0.0000   0.0000   0.0000   0.0000   0.0000   0.0000   0.0000   0.0000
     0.0000   0.0000   0.0000   0.0000   0.0000   0.0000   0.0000   0.0000
     0.0000   0.0000   0.0000   0.0000   0.0000   0.0000   0.0000   0.0000
     0.0000   0.0000   0.0000   0.0000   0.0000   0.0000   0.0000   0.0000
     0.0000   0.0000   0.0000   0.0000   0.0000   0.0000   0.0000   0.0000
     0.0000   0.0000   0.0000   0.0000   0.0000   0.0000   0.0000   0.0000
     0.0000   0.0000

          k = 0.0625 0.4375 0.0803 ( 72084 PWs)   bands (ev):

  -102.2892-102.2892-102.2892-102.2891-102.2201-102.2198-102.2197-102.2188
  -101.7434-101.7434-101.7434-101.7434 -59.8723 -59.8722 -59.8722 -59.8722
   -59.8722 -59.8722 -59.8722 -59.8721 -59.8218 -59.8214 -59.8214 -59.8205
   -59.5050 -59.5050 -59.5047 -59.5047 -59.5046 -59.5046 -59.5037 -59.5037
   -59.3196 -59.3196 -59.3196 -59.3196 -59.2207 -59.2207 -59.2207 -59.2206
   -59.2206 -59.2206 -59.2206 -59.2206 -59.0576 -59.0576 -59.0576 -59.0576
   -31.6235 -31.6213 -31.6128 -31.6108 -16.7180 -16.7165 -16.7000 -16.6986
   -16.6338 -16.6326 -16.6189 -16.6178 -12.0522 -12.0439 -11.9735 -11.9358
   -11.8989 -11.8650 -11.8079 -11.7937 -11.7789 -11.7613 -11.6009 -11.5978
    -8.2014  -8.0647  -7.7235  -7.7088  -7.6734  -7.6697  -7.5008  -7.4511
    -7.4407  -7.4269  -7.4025  -7.4006  -7.3665  -7.3291  -7.2976  -7.2863
    -7.2460  -7.2140  -7.2046  -7.1864  -7.1212  -7.1164  -7.0922  -7.0898
    -2.1378  -2.1173  -2.0760  -2.0660  -2.0369  -2.0333  -2.0324  -2.0067
    -1.9932  -1.9786  -1.9442  -1.9314  -1.9259  -1.9002  -1.8151  -1.8017
    -1.7970  -1.7621  -1.7517  -1.7232  -1.5825  -1.5792  -1.5553  -1.5524
     3.2005   3.4173   3.6675   3.7619   4.2727   4.3064   4.3707   4.4145
     4.5271   4.7333   4.8033   4.8183   4.8548   4.8869   4.9128   4.9583
     5.0120   5.0333   5.0468   5.0546   5.0630   5.0932   5.1190   5.1595
     5.1917   5.2719   5.3536   5.3668   5.6378   5.7766   5.8383   5.8558
     5.9333   5.9500   5.9599   5.9955   6.0430   6.0536   6.0559   6.1422
     6.1859   6.2172   6.2306   6.2478   6.2840   6.3173   6.3442   6.3548
     6.3974   6.4270   6.5194   6.5201   6.5757   6.5774   6.6866   6.6917
     6.7688   6.7754   6.8153   6.8162   6.8491   6.9004   6.9815   6.9873
     7.1098   7.1324   7.1976   7.2215   7.2278   7.2892   7.3226   7.3336
     7.3926   7.4450   7.4545   7.4809   7.4850   7.5520   7.5804   7.6209
     7.6836   7.7079   7.7841   7.7898   7.7970   7.8382   7.8505   7.8706
     7.8740   7.8870   7.8926   7.9274   7.9283   7.9425   7.9565   7.9682
     7.9709   8.0673   8.0710   8.1050   8.1414   8.1447   8.1640   8.1726
     8.2373   8.2916   8.3038   8.3578   8.4209   8.4730   8.5020   8.5172
     8.5923   8.7033   8.7577   8.7877   8.7950   8.8392   9.0226   9.1224
     9.1296   9.1480   9.1890   9.1961   9.2020   9.2025   9.2568   9.2677
    10.6178  10.7755  11.0773  11.1917  12.1225  12.3234  12.3411  12.4640
    12.6316  12.7616  12.9556  13.0885  13.4627  13.6355  13.7014  13.8988
    13.9657  14.0409  14.1446  14.2493  14.2745  14.4324  14.5103  14.5509
    14.6386  14.7815  14.9068  14.9107  14.9471  14.9771  15.1357  15.1870
    15.2636  15.4516  15.4628  15.5276  15.5600  15.5750  15.5753  15.6694
    15.6959  15.6987  15.7613  15.7752  15.7906  15.8660  15.8713  15.9213
    16.0894  16.1351

     occupation numbers 
     1.0000   1.0000   1.0000   1.0000   1.0000   1.0000   1.0000   1.0000
     1.0000   1.0000   1.0000   1.0000   1.0000   1.0000   1.0000   1.0000
     1.0000   1.0000   1.0000   1.0000   1.0000   1.0000   1.0000   1.0000
     1.0000   1.0000   1.0000   1.0000   1.0000   1.0000   1.0000   1.0000
     1.0000   1.0000   1.0000   1.0000   1.0000   1.0000   1.0000   1.0000
[...]
   -59.8722 -59.8722 -59.8721 -59.8721 -59.8217 -59.8215 -59.8213 -59.8205
   -59.5050 -59.5050 -59.5047 -59.5047 -59.5045 -59.5045 -59.5037 -59.5037
   -59.3197 -59.3196 -59.3196 -59.3196 -59.2207 -59.2207 -59.2207 -59.2206
   -59.2206 -59.2206 -59.2206 -59.2206 -59.0576 -59.0576 -59.0576 -59.0575
   -31.6227 -31.6205 -31.6137 -31.6116 -16.7126 -16.7093 -16.6949 -16.6917
   -16.6411 -16.6384 -16.6259 -16.6233 -12.0216 -12.0136 -11.9606 -11.9233
   -11.8965 -11.8675 -11.8083 -11.8060 -11.7810 -11.7755 -11.6397 -11.6361
    -8.1527  -8.0171  -7.7095  -7.6983  -7.6644  -7.6572  -7.5760  -7.4674
    -7.4137  -7.4087  -7.4013  -7.3902  -7.3711  -7.3356  -7.3020  -7.3000
    -7.2799  -7.2302  -7.2174  -7.2006  -7.1182  -7.1017  -7.0989  -7.0831
    -2.1276  -2.1163  -2.0611  -2.0391  -2.0333  -2.0062  -2.0000  -1.9939
    -1.9768  -1.9662  -1.9570  -1.9392  -1.9088  -1.8924  -1.8291  -1.8084
    -1.7941  -1.7853  -1.7850  -1.7733  -1.5957  -1.5866  -1.5838  -1.5775
     3.3046   3.5206   3.7553   3.8475   4.2405   4.3014   4.3812   4.4043
     4.5965   4.7396   4.7495   4.7821   4.8189   4.8539   4.9205   4.9884
     5.0108   5.0391   5.0456   5.0845   5.0879   5.0883   5.1226   5.1631
     5.2239   5.2823   5.3024   5.3104   5.6118   5.7237   5.7495   5.8504
     5.8966   5.9149   5.9466   5.9471   5.9637   6.0278   6.0593   6.0756
     6.1490   6.1537   6.1550   6.2113   6.2339   6.2897   6.2973   6.3120
     6.3316   6.3782   6.4314   6.4345   6.4624   6.4780   6.5804   6.6009
     6.7686   6.7886   7.0289   7.0366   7.0414   7.0817   7.0850   7.0993
     7.1129   7.1598   7.1947   7.2390   7.2743   7.3490   7.3595   7.3749
     7.3831   7.4600   7.4603   7.5886   7.6056   7.6074   7.6349   7.6491
     7.6743   7.7003   7.7298   7.7575   7.7681   7.7741   7.8193   7.8299
     7.8471   7.8671   7.8800   7.8945   7.9389   7.9415   7.9582   7.9945
     8.0003   8.0140   8.0556   8.0610   8.0934   8.0997   8.1251   8.1469
     8.1483   8.2133   8.3087   8.3253   8.3339   8.4508   8.4517   8.4980
     8.5500   8.6597   8.7308   8.7410   9.0546   9.0658   9.0824   9.1180
     9.1361   9.1454   9.2165   9.2414   9.2606   9.3101   9.3179   9.3449
    10.6084  10.7413  11.0236  11.1290  12.2182  12.3613  12.3816  12.4912
    12.8920  12.9161  13.2005  13.2220  13.4192  13.5448  13.8583  13.9060
    13.9534  14.0033  14.0769  14.1680  14.1893  14.2986  14.3102  14.4138
    14.5009  14.6965  14.8320  15.0168  15.0728  15.1064  15.1582  15.1794
    15.1975  15.2595  15.3985  15.4497  15.4912  15.5042  15.5540  15.6815
    15.7021  15.7495  15.7708  15.8415  15.8680  15.9370  16.0044  16.1115
    16.1260  16.1787

     occupation numbers 
     1.0000   1.0000   1.0000   1.0000   1.0000   1.0000   1.0000   1.0000
     1.0000   1.0000   1.0000   1.0000   1.0000   1.0000   1.0000   1.0000
     1.0000   1.0000   1.0000   1.0000   1.0000   1.0000   1.0000   1.0000
     1.0000   1.0000   1.0000   1.0000   1.0000   1.0000   1.0000   1.0000
     1.0000   1.0000   1.0000   1.0000   1.0000   1.0000   1.0000   1.0000
     1.0000   1.0000   1.0000   1.0000   1.0000   1.0000   1.0000   1.0000
     1.0000   1.0000   1.0000   1.0000   1.0000   1.0000   1.0000   1.0000
     1.0000   1.0000   1.0000   1.0000   1.0000   1.0000   1.0000   1.0000
     1.0000   1.0000   1.0000   1.0000   1.0000   1.0000   1.0000   1.0000
     1.0000   1.0000   1.0000   1.0000   1.0000   1.0000   1.0000   1.0000
     1.0000   1.0000   1.0000   1.0000   1.0000   1.0000   1.0000   1.0000
     1.0000   1.0000   1.0000   1.0000   1.0000   1.0000   1.0000   1.0000
     1.0000   1.0000   1.0000   1.0000   1.0000   1.0000   1.0000   1.0000
     1.0000   1.0000   1.0000   1.0000   1.0000   1.0000   1.0000   1.0000
     1.0000   1.0000   1.0000   1.0000   1.0000   1.0000   1.0000   1.0000
     1.0000   1.0000   1.0000   1.0000   1.0000   1.0000   1.0000   1.0000
     1.0000   1.0000   1.0000   1.0000   1.0000   1.0000   1.0000   1.0000
     1.0000   1.0000   1.0000   1.0000   1.0000   1.0000   1.0000   1.0000
     1.0000   1.0000   1.0000   1.0000   1.0000   1.0000   1.0000   1.0000
     1.0000   1.0000   1.0000   1.0000   1.0000   1.0000   1.0000   1.0000
     1.0000   1.0000   1.0000   1.0000   1.0000   1.0000   1.0000   1.0000
     1.0000   1.0000   1.0000   1.0000   1.0000   1.0000   1.0000   1.0000
     1.0000   1.0000   1.0000   1.0000   1.0000   1.0000   1.0000   1.0000
     1.0000   1.0000   1.0000   1.0000   1.0000   1.0000   1.0000   1.0000
     1.0000   1.0000   1.0000   1.0000   1.0000   1.0000   1.0000   1.0000
     1.0000   1.0000   1.0000   1.0000   1.0000   1.0000   1.0000   1.0000
     1.0000   1.0000   1.0000   1.0000   1.0000   1.0000   1.0000   1.0000
     1.0000   1.0000   1.0000   1.0000   1.0000   1.0000   1.0000   1.0000
     1.0000   1.0000   1.0000   1.0000   1.0000   1.0000   1.0000   1.0000
     1.0000   1.0000   1.0000   1.0000   1.0000   1.0000   1.0000   1.0000
     1.0000   1.0000   1.0000   1.0000   1.0000   1.0000   1.0000   1.0000
     0.0000   0.0000   0.0000   0.0000   0.0000   0.0000   0.0000   0.0000
     0.0000   0.0000   0.0000   0.0000   0.0000   0.0000   0.0000   0.0000
     0.0000   0.0000   0.0000   0.0000   0.0000   0.0000   0.0000   0.0000
     0.0000   0.0000   0.0000   0.0000   0.0000   0.0000   0.0000   0.0000
     0.0000   0.0000   0.0000   0.0000   0.0000   0.0000   0.0000   0.0000
     0.0000   0.0000   0.0000   0.0000   0.0000   0.0000   0.0000   0.0000
     0.0000   0.0000

          k = 0.4375 0.3125-0.0803 ( 72088 PWs)   bands (ev):

  -102.2892-102.2892-102.2892-102.2891-102.2201-102.2198-102.2196-102.2188
  -101.7434-101.7434-101.7434-101.7433 -59.8723 -59.8722 -59.8722 -59.8722
   -59.8722 -59.8722 -59.8721 -59.8721 -59.8217 -59.8215 -59.8213 -59.8205
   -59.5050 -59.5050 -59.5047 -59.5047 -59.5045 -59.5045 -59.5037 -59.5037
   -59.3197 -59.3196 -59.3196 -59.3196 -59.2207 -59.2207 -59.2207 -59.2206
   -59.2206 -59.2206 -59.2206 -59.2206 -59.0576 -59.0576 -59.0576 -59.0575
   -31.6212 -31.6191 -31.6152 -31.6131 -16.7000 -16.6986 -16.6827 -16.6814
   -16.6523 -16.6511 -16.6368 -16.6356 -11.9641 -11.9570 -11.9366 -11.9000
   -11.8921 -11.8715 -11.8349 -11.8027 -11.8013 -11.7847 -11.7085 -11.7044
    -8.0641  -7.9314  -7.6940  -7.6692  -7.6671  -7.6472  -7.6261  -7.5812
    -7.4183  -7.4132  -7.4091  -7.3948  -7.3800  -7.3405  -7.2738  -7.2735
    -7.2571  -7.2494  -7.2271  -7.1996  -7.1214  -7.1205  -7.1059  -7.1043
    -2.0989  -2.0877  -2.0407  -2.0189  -2.0168  -2.0018  -1.9874  -1.9856
    -1.9597  -1.9525  -1.9354  -1.9258  -1.8956  -1.8705  -1.8672  -1.8513
    -1.8424  -1.8379  -1.7683  -1.7412  -1.6476  -1.6281  -1.6226  -1.6013
     3.4777   3.6969   3.9414   4.0053   4.1627   4.2976   4.3627   4.4110
     4.5758   4.6393   4.6992   4.7143   4.7174   4.9130   4.9964   5.0314
     5.0341   5.0462   5.0545   5.0730   5.1143   5.1198   5.1636   5.1944
     5.2166   5.2765   5.2829   5.3435   5.4876   5.5788   5.6072   5.6671
     5.7147   5.7347   5.8043   5.8084   5.9694   5.9815   5.9921   6.0527
     6.0782   6.1754   6.1833   6.2205   6.2840   6.3403   6.3712   6.3758
     6.3965   6.4026   6.4561   6.4657   6.5071   6.5159   6.5160   6.5170
     6.7373   6.7579   6.7969   6.8040   7.0434   7.0507   7.0948   7.1098
     7.1524   7.1816   7.2241   7.2377   7.2998   7.3598   7.4023   7.4708
     7.4766   7.4937   7.5315   7.5622   7.6055   7.6332   7.6862   7.7213
     7.7276   7.7462   7.7801   7.8205   7.8372   7.8383   7.8528   7.8587
     7.8730   7.8737   7.8779   7.8897   7.9212   7.9367   7.9429   7.9669
     8.0021   8.0186   8.0503   8.0690   8.0991   8.1009   8.1294   8.1503
     8.1739   8.2024   8.2733   8.2866   8.3572   8.3673   8.3732   8.3895
     8.4765   8.5166   8.6006   8.6205   9.0484   9.0552   9.0808   9.0964
     9.2845   9.2940   9.3120   9.3383   9.4336   9.5236   9.5302   9.6216
    10.6072  10.6899  10.9122  11.0033  12.2719  12.2998  12.3613  12.4619
    13.0030  13.1012  13.3131  13.3159  13.6347  13.7088  13.7933  13.9357
    13.9874  14.0463  14.0719  14.0848  14.2858  14.4595  14.5943  14.6536
    14.7201  14.7869  14.9049  14.9506  14.9921  15.1882  15.2081  15.2284
    15.2582  15.3146  15.3799  15.3839  15.4036  15.5431  15.5672  15.5770
    15.6096  15.6567  15.6654  15.6848  15.7094  15.7118  15.7509  15.7552
    15.8071  15.8806

     occupation numbers 
     1.0000   1.0000   1.0000   1.0000   1.0000   1.0000   1.0000   1.0000
     1.0000   1.0000   1.0000   1.0000   1.0000   1.0000   1.0000   1.0000
     1.0000   1.0000   1.0000   1.0000   1.0000   1.0000   1.0000   1.0000
     1.0000   1.0000   1.0000   1.0000   1.0000   1.0000   1.0000   1.0000
     1.0000   1.0000   1.0000   1.0000   1.0000   1.0000   1.0000   1.0000
     1.0000   1.0000   1.0000   1.0000   1.0000   1.0000   1.0000   1.0000
     1.0000   1.0000   1.0000   1.0000   1.0000   1.0000   1.0000   1.0000
     1.0000   1.0000   1.0000   1.0000   1.0000   1.0000   1.0000   1.0000
     1.0000   1.0000   1.0000   1.0000   1.0000   1.0000   1.0000   1.0000
     1.0000   1.0000   1.0000   1.0000   1.0000   1.0000   1.0000   1.0000
     1.0000   1.0000   1.0000   1.0000   1.0000   1.0000   1.0000   1.0000
     1.0000   1.0000   1.0000   1.0000   1.0000   1.0000   1.0000   1.0000
     1.0000   1.0000   1.0000   1.0000   1.0000   1.0000   1.0000   1.0000
     1.0000   1.0000   1.0000   1.0000   1.0000   1.0000   1.0000   1.0000
     1.0000   1.0000   1.0000   1.0000   1.0000   1.0000   1.0000   1.0000
     1.0000   1.0000   1.0000   1.0000   1.0000   1.0000   1.0000   1.0000
     1.0000   1.0000   1.0000   1.0000   1.0000   1.0000   1.0000   1.0000
     1.0000   1.0000   1.0000   1.0000   1.0000   1.0000   1.0000   1.0000
     1.0000   1.0000   1.0000   1.0000   1.0000   1.0000   1.0000   1.0000
     1.0000   1.0000   1.0000   1.0000   1.0000   1.0000   1.0000   1.0000
     1.0000   1.0000   1.0000   1.0000   1.0000   1.0000   1.0000   1.0000
     1.0000   1.0000   1.0000   1.0000   1.0000   1.0000   1.0000   1.0000
     1.0000   1.0000   1.0000   1.0000   1.0000   1.0000   1.0000   1.0000
     1.0000   1.0000   1.0000   1.0000   1.0000   1.0000   1.0000   1.0000
     1.0000   1.0000   1.0000   1.0000   1.0000   1.0000   1.0000   1.0000
     1.0000   1.0000   1.0000   1.0000   1.0000   1.0000   1.0000   1.0000
     1.0000   1.0000   1.0000   1.0000   1.0000   1.0000   1.0000   1.0000
     1.0000   1.0000   1.0000   1.0000   1.0000   1.0000   1.0000   1.0000
     1.0000   1.0000   1.0000   1.0000   1.0000   1.0000   1.0000   1.0000
     1.0000   1.0000   1.0000   1.0000   1.0000   1.0000   1.0000   1.0000
     1.0000   1.0000   1.0000   1.0000   1.0000   1.0000   1.0000   1.0000
     0.0000   0.0000   0.0000   0.0000   0.0000   0.0000   0.0000   0.0000
     0.0000   0.0000   0.0000   0.0000   0.0000   0.0000   0.0000   0.0000
     0.0000   0.0000   0.0000   0.0000   0.0000   0.0000   0.0000   0.0000
     0.0000   0.0000   0.0000   0.0000   0.0000   0.0000   0.0000   0.0000
     0.0000   0.0000   0.0000   0.0000   0.0000   0.0000   0.0000   0.0000
     0.0000   0.0000   0.0000   0.0000   0.0000   0.0000   0.0000   0.0000
     0.0000   0.0000

          k = 0.4375 0.3125-0.2409 ( 72080 PWs)   bands (ev):

  -102.2892-102.2892-102.2892-102.2891-102.2201-102.2198-102.2196-102.2188
  -101.7434-101.7434-101.7434-101.7433 -59.8723 -59.8722 -59.8722 -59.8722
   -59.8722 -59.8722 -59.8721 -59.8721 -59.8217 -59.8215 -59.8213 -59.8205
   -59.5050 -59.5050 -59.5047 -59.5047 -59.5045 -59.5045 -59.5037 -59.5037
   -59.3197 -59.3196 -59.3196 -59.3196 -59.2207 -59.2207 -59.2207 -59.2206
   -59.2206 -59.2206 -59.2206 -59.2206 -59.0576 -59.0576 -59.0576 -59.0575
   -31.6212 -31.6191 -31.6152 -31.6131 -16.7009 -16.6977 -16.6836 -16.6805
   -16.6531 -16.6503 -16.6375 -16.6348 -11.9641 -11.9570 -11.9366 -11.9000
   -11.8920 -11.8715 -11.8349 -11.8027 -11.8013 -11.7847 -11.7085 -11.7044
    -8.0638  -7.9308  -7.6909  -7.6739  -7.6735  -7.6491  -7.6327  -7.5741
    -7.4090  -7.4050  -7.3974  -7.3902  -7.3768  -7.3399  -7.2773  -7.2764
    -7.2686  -7.2483  -7.2475  -7.2065  -7.1183  -7.1113  -7.1069  -7.1008
    -2.0959  -2.0907  -2.0380  -2.0214  -2.0058  -1.9946  -1.9781  -1.9754
    -1.9710  -1.9589  -1.9451  -1.9360  -1.8895  -1.8743  -1.8650  -1.8478
    -1.8475  -1.8419  -1.7616  -1.7479  -1.6425  -1.6278  -1.6235  -1.6058
     3.4859   3.7045   3.9304   4.0024   4.1654   4.2931   4.3711   4.4098
     4.5812   4.6315   4.6966   4.7143   4.7216   4.9159   4.9853   5.0234
     5.0270   5.0484   5.0574   5.0782   5.1118   5.1200   5.1588   5.1888
     5.2148   5.2772   5.2886   5.3449   5.4896   5.5769   5.6108   5.6706
     5.7139   5.7367   5.8031   5.8066   5.9898   5.9945   6.0683   6.0872
     6.1460   6.1615   6.1813   6.2189   6.2417   6.2963   6.2973   6.3125
     6.3504   6.3584   6.4162   6.4186   6.4270   6.4399   6.4403   6.4491
     6.8387   6.8747   6.9975   7.0536   7.0690   7.0968   7.1028   7.1366
     7.1972   7.1989   7.2144   7.2529   7.3184   7.3910   7.4084   7.4086
     7.4578   7.5218   7.5313   7.5975   7.5978   7.6461   7.6511   7.7293
     7.7370   7.7442   7.7681   7.7818   7.8193   7.8350   7.8389   7.8583
     7.8602   7.8731   7.8880   7.8921   7.8972   7.9165   7.9176   7.9548
     7.9615   8.0015   8.0395   8.0469   8.0580   8.0602   8.1035   8.1233
     8.1337   8.1913   8.2619   8.2927   8.3327   8.3510   8.3726   8.4340
     8.4834   8.5544   8.6254   8.6264   9.0355   9.0494   9.0692   9.0939
     9.2806   9.2935   9.3004   9.3364   9.4544   9.5198   9.5313   9.6152
    10.6064  10.6875  10.9127  11.0024  12.3137  12.3816  12.3868  12.4769
    13.0419  13.0955  13.3210  13.3688  13.6289  13.6779  13.8568  13.8745
    13.9981  14.0036  14.0136  14.0940  14.2313  14.3626  14.5159  14.5905
    14.6502  14.6947  14.8293  14.9247  15.0083  15.1013  15.1561  15.1931
    15.2418  15.2698  15.3755  15.3799  15.4439  15.4503  15.4922  15.5072
    15.5352  15.6380  15.7191  15.7327  15.8197  15.8905  15.9059  15.9164
    15.9465  15.9563

     occupation numbers 
     1.0000   1.0000   1.0000   1.0000   1.0000   1.0000   1.0000   1.0000
     1.0000   1.0000   1.0000   1.0000   1.0000   1.0000   1.0000   1.0000
     1.0000   1.0000   1.0000   1.0000   1.0000   1.0000   1.0000   1.0000
     1.0000   1.0000   1.0000   1.0000   1.0000   1.0000   1.0000   1.0000
     1.0000   1.0000   1.0000   1.0000   1.0000   1.0000   1.0000   1.0000
     1.0000   1.0000   1.0000   1.0000   1.0000   1.0000   1.0000   1.0000
     1.0000   1.0000   1.0000   1.0000   1.0000   1.0000   1.0000   1.0000
     1.0000   1.0000   1.0000   1.0000   1.0000   1.0000   1.0000   1.0000
     1.0000   1.0000   1.0000   1.0000   1.0000   1.0000   1.0000   1.0000
     1.0000   1.0000   1.0000   1.0000   1.0000   1.0000   1.0000   1.0000
     1.0000   1.0000   1.0000   1.0000   1.0000   1.0000   1.0000   1.0000
     1.0000   1.0000   1.0000   1.0000   1.0000   1.0000   1.0000   1.0000
     1.0000   1.0000   1.0000   1.0000   1.0000   1.0000   1.0000   1.0000
     1.0000   1.0000   1.0000   1.0000   1.0000   1.0000   1.0000   1.0000
     1.0000   1.0000   1.0000   1.0000   1.0000   1.0000   1.0000   1.0000
     1.0000   1.0000   1.0000   1.0000   1.0000   1.0000   1.0000   1.0000
     1.0000   1.0000   1.0000   1.0000   1.0000   1.0000   1.0000   1.0000
     1.0000   1.0000   1.0000   1.0000   1.0000   1.0000   1.0000   1.0000
     1.0000   1.0000   1.0000   1.0000   1.0000   1.0000   1.0000   1.0000
     1.0000   1.0000   1.0000   1.0000   1.0000   1.0000   1.0000   1.0000
     1.0000   1.0000   1.0000   1.0000   1.0000   1.0000   1.0000   1.0000
     1.0000   1.0000   1.0000   1.0000   1.0000   1.0000   1.0000   1.0000
     1.0000   1.0000   1.0000   1.0000   1.0000   1.0000   1.0000   1.0000
     1.0000   1.0000   1.0000   1.0000   1.0000   1.0000   1.0000   1.0000
     1.0000   1.0000   1.0000   1.0000   1.0000   1.0000   1.0000   1.0000
     1.0000   1.0000   1.0000   1.0000   1.0000   1.0000   1.0000   1.0000
     1.0000   1.0000   1.0000   1.0000   1.0000   1.0000   1.0000   1.0000
     1.0000   1.0000   1.0000   1.0000   1.0000   1.0000   1.0000   1.0000
     1.0000   1.0000   1.0000   1.0000   1.0000   1.0000   1.0000   1.0000
     1.0000   1.0000   1.0000   1.0000   1.0000   1.0000   1.0000   1.0000
     1.0000   1.0000   1.0000   1.0000   1.0000   1.0000   1.0000   1.0000
     0.0000   0.0000   0.0000   0.0000   0.0000   0.0000   0.0000   0.0000
     0.0000   0.0000   0.0000   0.0000   0.0000   0.0000   0.0000   0.0000
     0.0000   0.0000   0.0000   0.0000   0.0000   0.0000   0.0000   0.0000
     0.0000   0.0000   0.0000   0.0000   0.0000   0.0000   0.0000   0.0000
     0.0000   0.0000   0.0000   0.0000   0.0000   0.0000   0.0000   0.0000
     0.0000   0.0000   0.0000   0.0000   0.0000   0.0000   0.0000   0.0000
     0.0000   0.0000

     the Fermi energy is     9.8685 ev
     (compare with:     9.6310 eV, computed in scf)

     Writing all to output data dir ./YBCO6/YBCO6.save/
 
     init_run     :    203.05s CPU    208.66s WALL (       1 calls)
     electrons    :  13715.11s CPU  13949.77s WALL (       1 calls)

     Called by init_run:
     wfcinit      :    193.96s CPU    198.52s WALL (       1 calls)
     wfcinit:atom :      2.02s CPU      3.15s WALL (      64 calls)
     wfcinit:wfcr :    403.80s CPU    410.61s WALL (      64 calls)
     potinit      :      0.81s CPU      0.89s WALL (       1 calls)
     hinit0       :      1.45s CPU      1.49s WALL (       1 calls)

     Called by electrons:
     c_bands      :  13711.73s CPU  13946.39s WALL (       1 calls)
     v_of_rho     :      0.68s CPU      0.74s WALL (       1 calls)
     v_h          :      0.04s CPU      0.04s WALL (       1 calls)
     v_xc         :      0.64s CPU      0.70s WALL (       1 calls)
     newd         :      6.43s CPU      7.34s WALL (       1 calls)

     Called by c_bands:
     init_us_2    :      6.81s CPU      7.01s WALL (     128 calls)
     init_us_2:cp :      6.81s CPU      7.01s WALL (     128 calls)
     cegterg      :  13264.49s CPU  13487.60s WALL (     326 calls)

     Called by sum_band:

     Called by *egterg:
     cdiaghg      :    449.57s CPU    467.94s WALL (    6143 calls)
     cegterg:over :   1613.27s CPU   1628.47s WALL (    6079 calls)
     cegterg:upda :    953.80s CPU    987.84s WALL (    6079 calls)
     cegterg:last :   2470.88s CPU   2478.74s WALL (    1924 calls)
     cdiaghg:chol :      7.40s CPU      7.85s WALL (    6143 calls)
     cdiaghg:inve :      4.85s CPU      5.41s WALL (    6143 calls)
     cdiaghg:para :     94.38s CPU    104.44s WALL (   12286 calls)
     h_psi        :   6443.68s CPU   6576.02s WALL (    6469 calls)
     s_psi        :   1482.31s CPU   1483.72s WALL (    6533 calls)
     g_psi        :     28.40s CPU     28.46s WALL (    6079 calls)

     Called by h_psi:
     h_psi:calbec :   1390.74s CPU   1395.38s WALL (    6469 calls)
     vloc_psi     :   3149.02s CPU   3258.16s WALL (    6469 calls)
     add_vuspsi   :   1439.54s CPU   1439.66s WALL (    6469 calls)
     vhpsi        :    426.69s CPU    436.97s WALL (    6469 calls)

     General routines
     calbec       :   1547.69s CPU   1561.95s WALL (   13002 calls)
     fft          :      0.47s CPU      0.53s WALL (      23 calls)
     ffts         :      0.01s CPU      0.01s WALL (       2 calls)
     fftw         :   1726.39s CPU   1785.13s WALL ( 1238824 calls)
     interpolate  :      0.05s CPU      0.06s WALL (       2 calls)
     davcio       :      0.83s CPU     14.52s WALL (     256 calls)
 
     Parallel routines

     Hubbard U routines
     vhpsi        :    426.69s CPU    436.97s WALL (    6469 calls)
 
     PWSCF        :      3h52m CPU      3h56m WALL

 
   This run was terminated on:   5:43:29  27Dec2023            

=------------------------------------------------------------------------------=
   JOB DONE.
=------------------------------------------------------------------------------=
