
     Program PWSCF v.7.2 starts on  3Dec2023 at 23: 1:57 

     This program is part of the open-source Quantum ESPRESSO suite
     for quantum simulation of materials; please cite
         "P. Giannozzi et al., J. Phys.:Condens. Matter 21 395502 (2009);
         "P. Giannozzi et al., J. Phys.:Condens. Matter 29 465901 (2017);
         "P. Giannozzi et al., J. Chem. Phys. 152 154105 (2020);
          URL http://www.quantum-espresso.org", 
     in publications or presentations arising from this work. More details at
     http://www.quantum-espresso.org/quote

     Parallel version (MPI), running on     4 processors

     MPI processes distributed on     1 nodes
     10384 MiB available memory on the printing compute node when the environment starts
 
     Waiting for input...
     Reading input from standard input
Warning: card &IONS ignored
Warning: card / ignored
Warning: card &CELL ignored
Warning: card / ignored

     Current dimensions of program PWSCF are:
     Max number of different atomic species (ntypx) = 10
     Max number of k-points (npk) =  40000
     Max angular momentum in pseudopotentials (lmaxx) =  4
     file Ba.pbe-spn-kjpaw_psl.1.0.0.UPF: wavefunction(s)  5S 6S renormalized
     file Cu.paw.z_11.ld1.psl.v1.0.0-low.upf: wavefunction(s)  4S 3D renormalized
     file Cu.paw.z_11.ld1.psl.v1.0.0-low.upf: wavefunction(s)  4S 3D renormalized
     file Cu.paw.z_11.ld1.psl.v1.0.0-low.upf: wavefunction(s)  4S 3D renormalized
     file O.pbe-n-kjpaw_psl.0.1.UPF: wavefunction(s)  2P renormalized

     Atomic positions and unit cell read from directory:
     ./YBCO.NoU/YBCO.NoU.save/
 
     Message from routine setup:
     using ibrav=0 with symmetry is DISCOURAGED, use correct ibrav instead
 
     R & G space division:  proc/nbgrp/npool/nimage =       4
     Subspace diagonalization in iterative solution of the eigenvalue problem:
     a serial algorithm will be used

 
     Parallelization info
     --------------------
     sticks:   dense  smooth     PW     G-vecs:    dense   smooth      PW
     Min         247     196     60                17893    12606    2056
     Max         248     197     61                17897    12615    2059
     Sum         989     785    241                71579    50433    8229
 
     Using Slab Decomposition
 


     bravais-lattice index     =            0
     lattice parameter (alat)  =       7.2193  a.u.
     unit-cell volume          =    1170.3381 (a.u.)^3
     number of atoms/cell      =           13
     number of atomic types    =            6
     number of electrons       =       106.00
     number of Kohn-Sham states=          114
     kinetic-energy cutoff     =      46.6495  Ry
     charge density cutoff     =     235.8754  Ry
     Exchange-correlation= SLA  PW   PBX  PBC
                           (   1   4   3   4   0   0   0)
     Hubbard projectors: ortho-atomic
     Hubbard parameters of DFT+U (Dudarev formulation) in eV:
     U(Cu1-3d) = 10.0000
     U(Cu2-3d) = 10.0000

     Internal variables: lda_plus_u = T, lda_plus_u_kind = 0

     celldm(1)=   7.219321  celldm(2)=   0.000000  celldm(3)=   0.000000
     celldm(4)=   0.000000  celldm(5)=   0.000000  celldm(6)=   0.000000

     crystal axes: (cart. coord. in units of alat)
               a(1) = (   1.000000   0.000000   0.000000 )  
               a(2) = (   0.000000   1.017061   0.000000 )  
               a(3) = (   0.000000   0.000000   3.058265 )  

     reciprocal axes: (cart. coord. in units 2 pi/alat)
               b(1) = (  1.000000  0.000000  0.000000 )  
               b(2) = (  0.000000  0.983225  0.000000 )  
               b(3) = (  0.000000  0.000000  0.326983 )  


     PseudoPot. # 1 for Y  read from file:
     ~/q-e/pseudo/Y_pbe_v1.uspp.F.UPF
     MD5 check sum: Not computed, couldn't open file
     Pseudo is Ultrasoft + core correction, Zval = 11.0
     Generated by new atomic code, or converted to UPF format
     Using radial grid of  885 points,  6 beta functions with: 
                l(1) =   0
                l(2) =   0
                l(3) =   1
                l(4) =   1
                l(5) =   2
                l(6) =   2
     Q(r) pseudized with  6 coefficients,  rinner =    1.200   1.200   1.200
                                                       1.200   1.200

     PseudoPot. # 2 for Ba read from file:
     ~/q-e/pseudo/Ba.pbe-spn-kjpaw_psl.1.0.0.UPF
     MD5 check sum: Not computed, couldn't open file
     Pseudo is Projector augmented-wave + core cor, Zval = 10.0
     Generated using "atomic" code by A. Dal Corso  v.5.1
     Shape of augmentation charge: PSQ
     Using radial grid of 1251 points,  7 beta functions with: 
                l(1) =   0
                l(2) =   0
                l(3) =   0
                l(4) =   1
                l(5) =   1
                l(6) =   2
                l(7) =   2
     Q(r) pseudized with 0 coefficients 


     PseudoPot. # 3 for Cu read from file:
     ~/q-e/pseudo/Cu.paw.z_11.ld1.psl.v1.0.0-low.upf
     MD5 check sum: Not computed, couldn't open file
     Pseudo is Projector augmented-wave + core cor, Zval = 11.0
     Generated using &quot;atomic&quot; code by A. Dal Corso  v.6.3MaX
     Shape of augmentation charge: PSQ
     Using radial grid of 1199 points,  6 beta functions with: 
                l(1) =   0
                l(2) =   0
                l(3) =   1
                l(4) =   1
                l(5) =   2
                l(6) =   2
     Q(r) pseudized with 0 coefficients 


     PseudoPot. # 4 for Cu read from file:
     ~/q-e/pseudo/Cu.paw.z_11.ld1.psl.v1.0.0-low.upf
     MD5 check sum: Not computed, couldn't open file
     Pseudo is Projector augmented-wave + core cor, Zval = 11.0
     Generated using &quot;atomic&quot; code by A. Dal Corso  v.6.3MaX
     Shape of augmentation charge: PSQ
     Using radial grid of 1199 points,  6 beta functions with: 
                l(1) =   0
                l(2) =   0
                l(3) =   1
                l(4) =   1
                l(5) =   2
                l(6) =   2
     Q(r) pseudized with 0 coefficients 


     PseudoPot. # 5 for Cu read from file:
     ~/q-e/pseudo/Cu.paw.z_11.ld1.psl.v1.0.0-low.upf
     MD5 check sum: Not computed, couldn't open file
     Pseudo is Projector augmented-wave + core cor, Zval = 11.0
     Generated using &quot;atomic&quot; code by A. Dal Corso  v.6.3MaX
     Shape of augmentation charge: PSQ
     Using radial grid of 1199 points,  6 beta functions with: 
                l(1) =   0
                l(2) =   0
                l(3) =   1
                l(4) =   1
                l(5) =   2
                l(6) =   2
     Q(r) pseudized with 0 coefficients 


     PseudoPot. # 6 for O  read from file:
     ~/q-e/pseudo/O.pbe-n-kjpaw_psl.0.1.UPF
     MD5 check sum: Not computed, couldn't open file
     Pseudo is Projector augmented-wave + core cor, Zval =  6.0
     Generated using "atomic" code by A. Dal Corso  v.5.0.99 svn rev. 10869
     Shape of augmentation charge: BESSEL
     Using radial grid of 1095 points,  4 beta functions with: 
                l(1) =   0
                l(2) =   0
                l(3) =   1
                l(4) =   1
     Q(r) pseudized with 0 coefficients 


     atomic species   valence    mass     pseudopotential
     Y                11.00    88.90584     Y ( 1.00)
     Ba               10.00   137.32700     Ba( 1.00)
     Cu               11.00    63.54600     Cu( 1.00)
     Cu1              11.00    63.54600     Cu( 1.00)
     Cu2              11.00    63.54600     Cu( 1.00)
     O                 6.00    15.99900     O ( 1.00)

      4 Sym. Ops. (no inversion) found



   Cartesian axes

     site n.     atom                  positions (alat units)
         1        Y      tau(   1) = (   0.5000000   0.5085307   1.5291325  )
         2        Ba     tau(   2) = (   0.5000000   0.5085307   0.5511976  )
         3        Ba     tau(   3) = (   0.5000000   0.5085307   2.5070675  )
         4        Cu     tau(   4) = (   0.0000000   0.0000000   0.0000000  )
         5        Cu1    tau(   5) = (   0.0000000   0.0000000   1.0793607  )
         6        Cu2    tau(   6) = (   0.0000000   0.0000000   1.9789043  )
         7        O      tau(   7) = (   0.0000000   0.5085307   0.0000000  )
         8        O      tau(   8) = (   0.5000000   0.0000000   1.1578857  )
         9        O      tau(   9) = (   0.5000000   0.0000000   1.9003793  )
        10        O      tau(  10) = (   0.0000000   0.5085307   1.1570409  )
        11        O      tau(  11) = (   0.0000000   0.5085307   1.9012242  )
        12        O      tau(  12) = (   0.0000000   0.0000000   0.4916239  )
        13        O      tau(  13) = (   0.0000000   0.0000000   2.5666411  )

     number of k points=   125 (tetrahedron method)

     Number of k-points >= 100: set verbosity='high' to print them.

     Dense  grid:    71579 G-vectors     FFT dimensions: (  36,  36, 108)

     Smooth grid:    50433 G-vectors     FFT dimensions: (  32,  32, 100)

     Estimated max dynamical RAM per process >      82.35 MB

     Estimated total dynamical RAM >     329.39 MB

     Check: negative core charge=   -0.000010

     The potential is recalculated from file :
     ./YBCO.NoU/YBCO.NoU.save/charge-density


     negative rho (up, down):  4.526E-02 0.000E+00

     STARTING HUBBARD OCCUPATIONS:

     =================== HUBBARD OCCUPATIONS ===================
     ------------------------ ATOM    5 ------------------------
     Tr[ns(  5)] =   9.54386
     eigenvalues:
       0.817  0.972  0.992  0.993  0.998
     eigenvectors (columns):
      -0.065  0.998 -0.000 -0.000  0.000
      -0.000  0.000  1.000 -0.000  0.000
      -0.000  0.000  0.000  1.000  0.000
       0.998  0.065  0.000  0.000 -0.000
       0.000 -0.000 -0.000 -0.000  1.000
     occupation matrix ns (before diag.):
       0.972 -0.000 -0.000  0.010  0.000
      -0.000  0.992 -0.000  0.000  0.000
      -0.000 -0.000  0.993  0.000  0.000
       0.010  0.000  0.000  0.817 -0.000
       0.000  0.000  0.000 -0.000  0.998
     ------------------------ ATOM    6 ------------------------
     Tr[ns(  6)] =   9.54441
     eigenvalues:
       0.817  0.972  0.992  0.993  0.998
     eigenvectors (columns):
      -0.064  0.998 -0.000 -0.000  0.000
      -0.000  0.000  1.000 -0.000  0.000
      -0.000  0.000  0.000  1.000  0.000
       0.998  0.064  0.000  0.000 -0.000
       0.000 -0.000 -0.000 -0.000  1.000
     occupation matrix ns (before diag.):
       0.972 -0.000 -0.000  0.010  0.000
      -0.000  0.992 -0.000  0.000  0.000
      -0.000 -0.000  0.993  0.000  0.000
       0.010  0.000  0.000  0.818 -0.000
       0.000  0.000  0.000 -0.000  0.998

     Number of occupied Hubbard levels =   19.0883

     Atomic wfc used for Hubbard projectors are orthogonalized

     Starting wfcs are   78 randomized atomic wfcs +   36 random wfcs
     Checking if some PAW data can be deallocated... 

     Band Structure Calculation
     Davidson diagonalization with overlap
     c_bands:  1 eigenvalues not converged
     c_bands:  1 eigenvalues not converged

     ethr =  9.43E-13,  avg # of iterations = 63.2

     total cpu time spent up to now is      366.4 secs

     End of band structure calculation

     Number of k-points >= 100: set verbosity='high' to print the bands.

     the Fermi energy is     9.5893 ev
     (compare with:    11.1993 eV, computed in scf)

     Writing all to output data dir ./YBCO.NoU/YBCO.NoU.save/
 
     init_run     :      2.14s CPU      2.32s WALL (       1 calls)
     electrons    :    358.88s CPU    363.87s WALL (       1 calls)

     Called by init_run:
     wfcinit      :      1.53s CPU      1.63s WALL (       1 calls)
     potinit      :      0.16s CPU      0.17s WALL (       1 calls)
     hinit0       :      0.25s CPU      0.26s WALL (       1 calls)

     Called by electrons:
     c_bands      :    358.65s CPU    363.63s WALL (       1 calls)
     v_of_rho     :      0.01s CPU      0.01s WALL (       1 calls)
     newd         :      0.09s CPU      0.15s WALL (       1 calls)
     PAW_pot      :      0.15s CPU      0.16s WALL (       1 calls)

     Called by c_bands:
     init_us_2    :      0.22s CPU      0.24s WALL (     250 calls)
     init_us_2:cp :      0.22s CPU      0.24s WALL (     250 calls)
     cegterg      :    351.98s CPU    356.63s WALL (     446 calls)

     Called by *egterg:
     cdiaghg      :     74.29s CPU     74.68s WALL (    8026 calls)
     h_psi        :    114.95s CPU    118.15s WALL (    8472 calls)
     s_psi        :     19.28s CPU     19.44s WALL (    8597 calls)
     g_psi        :      1.17s CPU      1.17s WALL (    7901 calls)

     Called by h_psi:
     h_psi:calbec :     19.21s CPU     19.68s WALL (    8472 calls)
     vloc_psi     :     69.77s CPU     72.13s WALL (    8472 calls)
     add_vuspsi   :     19.16s CPU     19.41s WALL (    8472 calls)
     vhpsi        :      5.24s CPU      5.31s WALL (    8472 calls)

     General routines
     calbec       :     22.42s CPU     22.99s WALL (   17069 calls)
     fft          :      0.00s CPU      0.01s WALL (      13 calls)
     ffts         :      0.00s CPU      0.00s WALL (       1 calls)
     fftw         :     57.26s CPU     59.22s WALL (  903428 calls)
     interpolate  :      0.00s CPU      0.00s WALL (       1 calls)
     davcio       :      0.19s CPU      0.24s WALL (     500 calls)
 
     Parallel routines

     Hubbard U routines
     vhpsi        :      5.24s CPU      5.31s WALL (    8472 calls)
 
     PWSCF        :   6m 1.77s CPU   6m 7.80s WALL

 
   This run was terminated on:  23: 8: 4   3Dec2023            

=------------------------------------------------------------------------------=
   JOB DONE.
=------------------------------------------------------------------------------=
