
     Program PWSCF v.7.2 starts on 23Dec2023 at 23: 5: 7 

     This program is part of the open-source Quantum ESPRESSO suite
     for quantum simulation of materials; please cite
         "P. Giannozzi et al., J. Phys.:Condens. Matter 21 395502 (2009);
         "P. Giannozzi et al., J. Phys.:Condens. Matter 29 465901 (2017);
         "P. Giannozzi et al., J. Chem. Phys. 152 154105 (2020);
          URL http://www.quantum-espresso.org", 
     in publications or presentations arising from this work. More details at
     http://www.quantum-espresso.org/quote

     Parallel version (MPI), running on     4 processors

     MPI processes distributed on     1 nodes
     9821 MiB available memory on the printing compute node when the environment starts
 
     Waiting for input...
     Reading input from standard input
Warning: card &CELL ignored
Warning: card / ignored

     Current dimensions of program PWSCF are:
     Max number of different atomic species (ntypx) = 10
     Max number of k-points (npk) =  40000
     Max angular momentum in pseudopotentials (lmaxx) =  4
     file Ba.pbe-spn-kjpaw_psl.1.0.0.UPF: wavefunction(s)  5S 6S renormalized
     file Cu.paw.z_11.ld1.psl.v1.0.0-low.upf: wavefunction(s)  4S 3D renormalized
     file Cu.paw.z_11.ld1.psl.v1.0.0-low.upf: wavefunction(s)  4S 3D renormalized
     file Cu.paw.z_11.ld1.psl.v1.0.0-low.upf: wavefunction(s)  4S 3D renormalized
     file O.pbe-n-kjpaw_psl.0.1.UPF: wavefunction(s)  2P renormalized
 
     R & G space division:  proc/nbgrp/npool/nimage =       4
     Subspace diagonalization in iterative solution of the eigenvalue problem:
     a serial algorithm will be used

 
     Parallelization info
     --------------------
     sticks:   dense  smooth     PW     G-vecs:    dense   smooth      PW
     Min         775     386    109                97899    34600    5245
     Max         776     387    110                97904    34607    5248
     Sum        3101    1547    437               391609   138413   20983
 
     Using Slab Decomposition
 


     bravais-lattice index     =            8
     lattice parameter (alat)  =       7.2802  a.u.
     unit-cell volume          =    1200.1757 (a.u.)^3
     number of atoms/cell      =           13
     number of atomic types    =            6
     number of electrons       =       106.00
     number of Kohn-Sham states=           64
     kinetic-energy cutoff     =      90.0000  Ry
     charge density cutoff     =     720.0000  Ry
     scf convergence threshold =      1.0E-09
     mixing beta               =       0.3000
     number of iterations used =            8  plain     mixing
     Exchange-correlation= SLA  PW   PBX  PBC
                           (   1   4   3   4   0   0   0)
     Hubbard projectors: ortho-atomic
     Hubbard parameters of DFT+U (Dudarev formulation) in eV:
     U(Cu1-3d) =  5.0000
     U(Cu2-3d) =  5.0000

     Internal variables: lda_plus_u = T, lda_plus_u_kind = 0

     celldm(1)=   7.280164  celldm(2)=   1.019554  celldm(3)=   3.050782
     celldm(4)=   0.000000  celldm(5)=   0.000000  celldm(6)=   0.000000

     crystal axes: (cart. coord. in units of alat)
               a(1) = (   1.000000   0.000000   0.000000 )  
               a(2) = (   0.000000   1.019554   0.000000 )  
               a(3) = (   0.000000   0.000000   3.050782 )  

     reciprocal axes: (cart. coord. in units 2 pi/alat)
               b(1) = (  1.000000  0.000000  0.000000 )  
               b(2) = (  0.000000  0.980821  0.000000 )  
               b(3) = (  0.000000  0.000000  0.327785 )  


     PseudoPot. # 1 for Y  read from file:
     ~/q-e/pseudo/Y_pbe_v1.uspp.F.UPF
     MD5 check sum: Not computed, couldn't open file
     Pseudo is Ultrasoft + core correction, Zval = 11.0
     Generated by new atomic code, or converted to UPF format
     Using radial grid of  885 points,  6 beta functions with: 
                l(1) =   0
                l(2) =   0
                l(3) =   1
                l(4) =   1
                l(5) =   2
                l(6) =   2
     Q(r) pseudized with  6 coefficients,  rinner =    1.200   1.200   1.200
                                                       1.200   1.200

     PseudoPot. # 2 for Ba read from file:
     ~/q-e/pseudo/Ba.pbe-spn-kjpaw_psl.1.0.0.UPF
     MD5 check sum: Not computed, couldn't open file
     Pseudo is Projector augmented-wave + core cor, Zval = 10.0
     Generated using "atomic" code by A. Dal Corso  v.5.1
     Shape of augmentation charge: PSQ
     Using radial grid of 1251 points,  7 beta functions with: 
                l(1) =   0
                l(2) =   0
                l(3) =   0
                l(4) =   1
                l(5) =   1
                l(6) =   2
                l(7) =   2
     Q(r) pseudized with 0 coefficients 


     PseudoPot. # 3 for Cu read from file:
     ~/q-e/pseudo/Cu.paw.z_11.ld1.psl.v1.0.0-low.upf
     MD5 check sum: Not computed, couldn't open file
     Pseudo is Projector augmented-wave + core cor, Zval = 11.0
     Generated using &quot;atomic&quot; code by A. Dal Corso  v.6.3MaX
     Shape of augmentation charge: PSQ
     Using radial grid of 1199 points,  6 beta functions with: 
                l(1) =   0
                l(2) =   0
                l(3) =   1
                l(4) =   1
                l(5) =   2
                l(6) =   2
     Q(r) pseudized with 0 coefficients 


     PseudoPot. # 4 for Cu read from file:
     ~/q-e/pseudo/Cu.paw.z_11.ld1.psl.v1.0.0-low.upf
     MD5 check sum: Not computed, couldn't open file
     Pseudo is Projector augmented-wave + core cor, Zval = 11.0
     Generated using &quot;atomic&quot; code by A. Dal Corso  v.6.3MaX
     Shape of augmentation charge: PSQ
     Using radial grid of 1199 points,  6 beta functions with: 
                l(1) =   0
                l(2) =   0
                l(3) =   1
                l(4) =   1
                l(5) =   2
                l(6) =   2
     Q(r) pseudized with 0 coefficients 


     PseudoPot. # 5 for Cu read from file:
     ~/q-e/pseudo/Cu.paw.z_11.ld1.psl.v1.0.0-low.upf
     MD5 check sum: Not computed, couldn't open file
     Pseudo is Projector augmented-wave + core cor, Zval = 11.0
     Generated using &quot;atomic&quot; code by A. Dal Corso  v.6.3MaX
     Shape of augmentation charge: PSQ
     Using radial grid of 1199 points,  6 beta functions with: 
                l(1) =   0
                l(2) =   0
                l(3) =   1
                l(4) =   1
                l(5) =   2
                l(6) =   2
     Q(r) pseudized with 0 coefficients 


     PseudoPot. # 6 for O  read from file:
     ~/q-e/pseudo/O.pbe-n-kjpaw_psl.0.1.UPF
     MD5 check sum: Not computed, couldn't open file
     Pseudo is Projector augmented-wave + core cor, Zval =  6.0
     Generated using "atomic" code by A. Dal Corso  v.5.0.99 svn rev. 10869
     Shape of augmentation charge: BESSEL
     Using radial grid of 1095 points,  4 beta functions with: 
                l(1) =   0
                l(2) =   0
                l(3) =   1
                l(4) =   1
     Q(r) pseudized with 0 coefficients 


     atomic species   valence    mass     pseudopotential
     Y                11.00    88.90584     Y ( 1.00)
     Ba               10.00   137.32700     Ba( 1.00)
     Cu               11.00    63.54600     Cu( 1.00)
     Cu1              11.00    63.54600     Cu( 1.00)
     Cu2              11.00    63.54600     Cu( 1.00)
     O                 6.00    15.99900     O ( 1.00)

     Starting magnetic structure 
     atomic species   magnetization
     Y               0.000
     Ba              0.000
     Cu              0.000
     Cu1             0.500
     Cu2            -0.500
     O               0.000

      4 Sym. Ops. (no inversion) found



   Cartesian axes

     site n.     atom                  positions (alat units)
         1        Y      tau(   1) = (   0.5000000   0.5097770   1.5253906  )
         2        Ba     tau(   2) = (   0.5000000   0.5097770   0.5610960  )
         3        Ba     tau(   3) = (   0.5000000   0.5097770   2.4896866  )
         4        Cu     tau(   4) = (   0.0000000   0.0000000   0.0000028  )
         5        Cu1    tau(   5) = (   0.0000000   0.0000000   1.0843467  )
         6        Cu2    tau(   6) = (   0.0000000   0.0000000   1.9664345  )
         7        O      tau(   7) = (   0.5000000   0.0000000   1.1535973  )
         8        O      tau(   8) = (   0.5000000   0.0000000   1.8971840  )
         9        O      tau(   9) = (   0.0000000   0.5097770   1.1501296  )
        10        O      tau(  10) = (   0.0000000   0.5097770   1.9006516  )
        11        O      tau(  11) = (   0.0000000   0.5097770  -0.0000000  )
        12        O      tau(  12) = (   0.0000000   0.0000000   0.4829070  )
        13        O      tau(  13) = (   0.0000000   0.0000000   2.5678744  )

     number of k points=    27  Methfessel-Paxton smearing, width (Ry)=  0.0300
                       cart. coord. in units 2pi/alat
        k(    1) = (   0.0000000   0.0000000   0.0000000), wk =   0.0156250
        k(    2) = (   0.0000000   0.0000000   0.0819462), wk =   0.0312500
        k(    3) = (   0.0000000   0.0000000  -0.1638924), wk =   0.0156250
        k(    4) = (   0.0000000   0.2452052   0.0000000), wk =   0.0312500
        k(    5) = (   0.0000000   0.2452052   0.0819462), wk =   0.0625000
        k(    6) = (   0.0000000   0.2452052  -0.1638924), wk =   0.0312500
        k(    7) = (   0.0000000  -0.4904105   0.0000000), wk =   0.0156250
        k(    8) = (   0.0000000  -0.4904105   0.0819462), wk =   0.0312500
        k(    9) = (   0.0000000  -0.4904105  -0.1638924), wk =   0.0156250
        k(   10) = (   0.2500000   0.0000000   0.0000000), wk =   0.0312500
        k(   11) = (   0.2500000   0.0000000   0.0819462), wk =   0.0625000
        k(   12) = (   0.2500000   0.0000000  -0.1638924), wk =   0.0312500
        k(   13) = (   0.2500000   0.2452052   0.0000000), wk =   0.0625000
        k(   14) = (   0.2500000   0.2452052   0.0819462), wk =   0.1250000
        k(   15) = (   0.2500000   0.2452052  -0.1638924), wk =   0.0625000
        k(   16) = (   0.2500000  -0.4904105   0.0000000), wk =   0.0312500
        k(   17) = (   0.2500000  -0.4904105   0.0819462), wk =   0.0625000
        k(   18) = (   0.2500000  -0.4904105  -0.1638924), wk =   0.0312500
        k(   19) = (  -0.5000000   0.0000000   0.0000000), wk =   0.0156250
        k(   20) = (  -0.5000000   0.0000000   0.0819462), wk =   0.0312500
        k(   21) = (  -0.5000000   0.0000000  -0.1638924), wk =   0.0156250
        k(   22) = (  -0.5000000   0.2452052   0.0000000), wk =   0.0312500
        k(   23) = (  -0.5000000   0.2452052   0.0819462), wk =   0.0625000
        k(   24) = (  -0.5000000   0.2452052  -0.1638924), wk =   0.0312500
        k(   25) = (  -0.5000000  -0.4904105   0.0000000), wk =   0.0156250
        k(   26) = (  -0.5000000  -0.4904105   0.0819462), wk =   0.0312500
        k(   27) = (  -0.5000000  -0.4904105  -0.1638924), wk =   0.0156250

     Dense  grid:   391609 G-vectors     FFT dimensions: (  64,  64, 192)

     Smooth grid:   138413 G-vectors     FFT dimensions: (  45,  45, 135)

     Estimated max dynamical RAM per process >     739.06 MB

     Estimated total dynamical RAM >       2.89 GB
     Generating pointlists ...
     new r_m :   0.2579 (alat units)  1.8774 (a.u.) for type    1
     new r_m :   0.2963 (alat units)  2.1572 (a.u.) for type    2
     new r_m :   0.1992 (alat units)  1.4502 (a.u.) for type    3
     new r_m :   0.2082 (alat units)  1.5159 (a.u.) for type    4
     new r_m :   0.2082 (alat units)  1.5159 (a.u.) for type    5
     new r_m :   0.1992 (alat units)  1.4502 (a.u.) for type    6

     Initial potential from superposition of free atoms

     starting charge     105.9608, renormalised to     106.0000

     negative rho (up, down):  2.177E-02 2.177E-02

     STARTING HUBBARD OCCUPATIONS:

     =================== HUBBARD OCCUPATIONS ===================
     ------------------------ ATOM    5 ------------------------
     Tr[ns(  5)] (up, down, total) =   5.00000  4.50000  9.50000
     Atomic magnetic moment for atom   5 =   0.50000
     SPIN  1
     eigenvalues:
       1.000  1.000  1.000  1.000  1.000
     eigenvectors (columns):
       1.000  0.000  0.000  0.000  0.000
       0.000  1.000  0.000  0.000  0.000
       0.000  0.000  1.000  0.000  0.000
       0.000  0.000  0.000  1.000  0.000
       0.000  0.000  0.000  0.000  1.000
     occupation matrix ns (before diag.):
       1.000  0.000  0.000  0.000  0.000
       0.000  1.000  0.000  0.000  0.000
       0.000  0.000  1.000  0.000  0.000
       0.000  0.000  0.000  1.000  0.000
       0.000  0.000  0.000  0.000  1.000
     SPIN  2
     eigenvalues:
       0.900  0.900  0.900  0.900  0.900
     eigenvectors (columns):
       1.000  0.000  0.000  0.000  0.000
       0.000  1.000  0.000  0.000  0.000
       0.000  0.000  1.000  0.000  0.000
       0.000  0.000  0.000  1.000  0.000
       0.000  0.000  0.000  0.000  1.000
     occupation matrix ns (before diag.):
       0.900  0.000  0.000  0.000  0.000
       0.000  0.900  0.000  0.000  0.000
       0.000  0.000  0.900  0.000  0.000
       0.000  0.000  0.000  0.900  0.000
       0.000  0.000  0.000  0.000  0.900
     ------------------------ ATOM    6 ------------------------
     Tr[ns(  6)] (up, down, total) =   4.50000  5.00000  9.50000
     Atomic magnetic moment for atom   6 =  -0.50000
     SPIN  1
     eigenvalues:
       0.900  0.900  0.900  0.900  0.900
     eigenvectors (columns):
       1.000  0.000  0.000  0.000  0.000
       0.000  1.000  0.000  0.000  0.000
       0.000  0.000  1.000  0.000  0.000
       0.000  0.000  0.000  1.000  0.000
       0.000  0.000  0.000  0.000  1.000
     occupation matrix ns (before diag.):
       0.900  0.000  0.000  0.000  0.000
       0.000  0.900  0.000  0.000  0.000
       0.000  0.000  0.900  0.000  0.000
       0.000  0.000  0.000  0.900  0.000
       0.000  0.000  0.000  0.000  0.900
     SPIN  2
     eigenvalues:
       1.000  1.000  1.000  1.000  1.000
     eigenvectors (columns):
       1.000  0.000  0.000  0.000  0.000
       0.000  1.000  0.000  0.000  0.000
       0.000  0.000  1.000  0.000  0.000
       0.000  0.000  0.000  1.000  0.000
       0.000  0.000  0.000  0.000  1.000
     occupation matrix ns (before diag.):
       1.000  0.000  0.000  0.000  0.000
       0.000  1.000  0.000  0.000  0.000
       0.000  0.000  1.000  0.000  0.000
       0.000  0.000  0.000  1.000  0.000
       0.000  0.000  0.000  0.000  1.000

     Number of occupied Hubbard levels =   19.0000

     Atomic wfc used for Hubbard projectors are orthogonalized

     Starting wfcs are   78 randomized atomic wfcs
     Checking if some PAW data can be deallocated... 

     total cpu time spent up to now is       22.5 secs

     Self-consistent Calculation

     iteration #  1     ecut=    90.00 Ry     beta= 0.30
     Davidson diagonalization with overlap
     ethr =  1.00E-02,  avg # of iterations =  7.7

     =================== HUBBARD OCCUPATIONS ===================
     ------------------------ ATOM    5 ------------------------
     Tr[ns(  5)] (up, down, total) =   4.96924  3.83505  8.80429
     Atomic magnetic moment for atom   5 =   1.13419
     SPIN  1
     eigenvalues:
       0.984  0.994  0.997  0.997  0.998
     eigenvectors (columns):
       0.990  0.142  0.000 -0.000  0.000
       0.000 -0.000 -0.000  1.000  0.000
       0.000 -0.000 -1.000 -0.000  0.000
      -0.142  0.990 -0.000  0.000 -0.000
      -0.000  0.000  0.000 -0.000  1.000
     occupation matrix ns (before diag.):
       0.984 -0.000 -0.000  0.001  0.000
      -0.000  0.997 -0.000  0.000  0.000
      -0.000 -0.000  0.997  0.000  0.000
       0.001  0.000  0.000  0.994 -0.000
       0.000  0.000  0.000 -0.000  0.998
     SPIN  2
     eigenvalues:
       0.199  0.827  0.919  0.930  0.960
     eigenvectors (columns):
       0.009  1.000  0.000  0.000 -0.000
       0.000  0.000 -0.000 -1.000 -0.000
       0.000  0.000 -0.000 -0.000  1.000
      -1.000  0.009 -0.000 -0.000  0.000
      -0.000 -0.000  1.000 -0.000  0.000
     occupation matrix ns (before diag.):
       0.827 -0.000 -0.000  0.005  0.000
      -0.000  0.930 -0.000  0.000  0.000
      -0.000 -0.000  0.960  0.000  0.000
       0.005  0.000  0.000  0.199 -0.000
       0.000  0.000  0.000 -0.000  0.919
     ------------------------ ATOM    6 ------------------------
     Tr[ns(  6)] (up, down, total) =   3.84429  4.96935  8.81364
     Atomic magnetic moment for atom   6 =  -1.12506
     SPIN  1
     eigenvalues:
       0.197  0.826  0.918  0.938  0.965
     eigenvectors (columns):
      -0.002  1.000  0.000  0.000 -0.000
       0.000  0.000 -0.000 -1.000 -0.000
       0.000  0.000 -0.000 -0.000  1.000
      -1.000 -0.002 -0.000 -0.000  0.000
      -0.000 -0.000  1.000 -0.000  0.000
     occupation matrix ns (before diag.):
       0.826 -0.000 -0.000 -0.001  0.000
      -0.000  0.938 -0.000  0.000  0.000
      -0.000 -0.000  0.965  0.000  0.000
      -0.001  0.000  0.000  0.197 -0.000
       0.000  0.000  0.000 -0.000  0.918
     SPIN  2
     eigenvalues:
       0.984  0.994  0.997  0.997  0.998
     eigenvectors (columns):
       0.990  0.143  0.000 -0.000  0.000
       0.000 -0.000 -0.000  1.000  0.000
       0.000 -0.000 -1.000 -0.000  0.000
      -0.143  0.990 -0.000  0.000 -0.000
      -0.000  0.000  0.000 -0.000  1.000
     occupation matrix ns (before diag.):
       0.984 -0.000 -0.000  0.001  0.000
      -0.000  0.997 -0.000  0.000  0.000
      -0.000 -0.000  0.997  0.000  0.000
       0.001  0.000  0.000  0.994 -0.000
       0.000  0.000  0.000 -0.000  0.998

     Number of occupied Hubbard levels =   17.6179

     negative rho (up, down):  1.035E-01 4.825E-02

     total cpu time spent up to now is       68.7 secs

     total energy              =   -1889.69146457 Ry
     estimated scf accuracy    <       7.05569531 Ry

     total magnetization       =     0.02 Bohr mag/cell
     absolute magnetization    =     5.93 Bohr mag/cell

     iteration #  2     ecut=    90.00 Ry     beta= 0.30
     Davidson diagonalization with overlap
     ethr =  6.66E-03,  avg # of iterations =  2.0

     negative rho (up, down):  2.004E-01 8.301E-02

     total cpu time spent up to now is      109.4 secs

     total energy              =   -1890.94257453 Ry
     estimated scf accuracy    <       2.26931918 Ry

     total magnetization       =     0.00 Bohr mag/cell
     absolute magnetization    =     4.89 Bohr mag/cell

     iteration #  3     ecut=    90.00 Ry     beta= 0.30
     Davidson diagonalization with overlap
     ethr =  2.14E-03,  avg # of iterations =  2.0

     negative rho (up, down):  2.911E-01 1.090E-01

     total cpu time spent up to now is      147.1 secs

     total energy              =   -1891.17421978 Ry
     estimated scf accuracy    <       0.81860472 Ry

     total magnetization       =     0.00 Bohr mag/cell
     absolute magnetization    =     4.35 Bohr mag/cell

     iteration #  4     ecut=    90.00 Ry     beta= 0.30
     Davidson diagonalization with overlap
     ethr =  7.72E-04,  avg # of iterations =  2.3

     negative rho (up, down):  3.268E-01 1.111E-01

     total cpu time spent up to now is      184.2 secs

     total energy              =   -1891.21704803 Ry
     estimated scf accuracy    <       0.70711927 Ry

     total magnetization       =     0.03 Bohr mag/cell
     absolute magnetization    =     3.52 Bohr mag/cell

     iteration #  5     ecut=    90.00 Ry     beta= 0.30
     Davidson diagonalization with overlap
     ethr =  6.67E-04,  avg # of iterations =  2.4

     negative rho (up, down):  3.152E-01 9.842E-02

     total cpu time spent up to now is      222.5 secs

     total energy              =   -1891.28111875 Ry
     estimated scf accuracy    <       0.75316458 Ry

     total magnetization       =     0.04 Bohr mag/cell
     absolute magnetization    =     2.98 Bohr mag/cell

     iteration #  6     ecut=    90.00 Ry     beta= 0.30
     Davidson diagonalization with overlap
     ethr =  6.67E-04,  avg # of iterations =  1.0

     negative rho (up, down):  2.656E-01 7.588E-02

     total cpu time spent up to now is      256.7 secs

     total energy              =   -1891.33365221 Ry
     estimated scf accuracy    <       0.11774689 Ry

     total magnetization       =     0.00 Bohr mag/cell
     absolute magnetization    =     2.88 Bohr mag/cell

     iteration #  7     ecut=    90.00 Ry     beta= 0.30
     Davidson diagonalization with overlap
     ethr =  1.11E-04,  avg # of iterations =  3.8

     negative rho (up, down):  1.592E-01 3.689E-02

     total cpu time spent up to now is      298.1 secs

     total energy              =   -1891.35927319 Ry
     estimated scf accuracy    <       0.09359533 Ry

     total magnetization       =    -0.00 Bohr mag/cell
     absolute magnetization    =     2.61 Bohr mag/cell

     iteration #  8     ecut=    90.00 Ry     beta= 0.30
     Davidson diagonalization with overlap
     ethr =  8.83E-05,  avg # of iterations =  1.5

     negative rho (up, down):  7.512E-02 2.249E-02

     total cpu time spent up to now is      334.6 secs

     total energy              =   -1891.35803603 Ry
     estimated scf accuracy    <       0.06347964 Ry

     total magnetization       =     0.01 Bohr mag/cell
     absolute magnetization    =     2.41 Bohr mag/cell

     iteration #  9     ecut=    90.00 Ry     beta= 0.30
     Davidson diagonalization with overlap
     c_bands:  2 eigenvalues not converged
     ethr =  5.99E-05,  avg # of iterations =  2.6

     negative rho (up, down):  5.268E-02 2.245E-02

     total cpu time spent up to now is      372.7 secs

     total energy              =   -1891.36514687 Ry
     estimated scf accuracy    <       0.00719211 Ry

     total magnetization       =    -0.03 Bohr mag/cell
     absolute magnetization    =     2.24 Bohr mag/cell

     iteration # 10     ecut=    90.00 Ry     beta= 0.30
     Davidson diagonalization with overlap
     ethr =  6.79E-06,  avg # of iterations =  9.9

     negative rho (up, down):  4.538E-02 2.244E-02

     total cpu time spent up to now is      419.0 secs

     total energy              =   -1891.36660330 Ry
     estimated scf accuracy    <       0.01972412 Ry

     total magnetization       =     0.06 Bohr mag/cell
     absolute magnetization    =     1.99 Bohr mag/cell

     iteration # 11     ecut=    90.00 Ry     beta= 0.30
     Davidson diagonalization with overlap
     ethr =  6.79E-06,  avg # of iterations =  1.5
     Minimization algorithm failed to find Fermi energy: reverting to bisection
     Possible cause: smearing is larger than the electronic band-gap.

     negative rho (up, down):  4.975E-02 2.245E-02

     total cpu time spent up to now is      447.9 secs

     total energy              =   -1891.36694294 Ry
     estimated scf accuracy    <       0.00662020 Ry

     total magnetization       =     0.01 Bohr mag/cell
     absolute magnetization    =     1.97 Bohr mag/cell

     iteration # 12     ecut=    90.00 Ry     beta= 0.30
     Davidson diagonalization with overlap
     ethr =  6.25E-06,  avg # of iterations =  1.0

     negative rho (up, down):  2.957E-02 2.244E-02

     total cpu time spent up to now is      475.7 secs

     total energy              =   -1891.36751896 Ry
     estimated scf accuracy    <       0.00781032 Ry

     total magnetization       =     0.00 Bohr mag/cell
     absolute magnetization    =     1.98 Bohr mag/cell

     iteration # 13     ecut=    90.00 Ry     beta= 0.30
     Davidson diagonalization with overlap
     ethr =  6.25E-06,  avg # of iterations =  1.8

     negative rho (up, down):  2.292E-02 2.244E-02

     total cpu time spent up to now is      506.7 secs

     total energy              =   -1891.36796893 Ry
     estimated scf accuracy    <       0.00290391 Ry

     total magnetization       =    -0.01 Bohr mag/cell
     absolute magnetization    =     1.88 Bohr mag/cell

     iteration # 14     ecut=    90.00 Ry     beta= 0.30
     Davidson diagonalization with overlap
     ethr =  2.74E-06,  avg # of iterations =  3.5

     negative rho (up, down):  2.244E-02 2.244E-02

     total cpu time spent up to now is      526.0 secs

     total energy              =   -1891.36829046 Ry
     estimated scf accuracy    <       0.00253221 Ry

     total magnetization       =     0.00 Bohr mag/cell
     absolute magnetization    =     1.79 Bohr mag/cell

     iteration # 15     ecut=    90.00 Ry     beta= 0.30
     Davidson diagonalization with overlap
     ethr =  2.39E-06,  avg # of iterations =  1.6

     negative rho (up, down):  2.245E-02 2.245E-02

     total cpu time spent up to now is      543.9 secs

     total energy              =   -1891.36853196 Ry
     estimated scf accuracy    <       0.00103817 Ry

     total magnetization       =    -0.00 Bohr mag/cell
     absolute magnetization    =     1.72 Bohr mag/cell

     iteration # 16     ecut=    90.00 Ry     beta= 0.30
     Davidson diagonalization with overlap
     ethr =  9.79E-07,  avg # of iterations =  3.9

     negative rho (up, down):  2.245E-02 2.245E-02

     total cpu time spent up to now is      563.5 secs

     total energy              =   -1891.36857692 Ry
     estimated scf accuracy    <       0.00122760 Ry

     total magnetization       =    -0.01 Bohr mag/cell
     absolute magnetization    =     1.61 Bohr mag/cell

     iteration # 17     ecut=    90.00 Ry     beta= 0.30
     Davidson diagonalization with overlap
     c_bands:  1 eigenvalues not converged
     ethr =  9.79E-07,  avg # of iterations =  3.8

     negative rho (up, down):  2.245E-02 2.245E-02

     total cpu time spent up to now is      583.7 secs

     total energy              =   -1891.36891877 Ry
     estimated scf accuracy    <       0.00017362 Ry

     total magnetization       =    -0.00 Bohr mag/cell
     absolute magnetization    =     1.50 Bohr mag/cell

     iteration # 18     ecut=    90.00 Ry     beta= 0.30
     Davidson diagonalization with overlap
     ethr =  1.64E-07,  avg # of iterations =  3.4

     negative rho (up, down):  2.246E-02 2.246E-02

     total cpu time spent up to now is      602.7 secs

     total energy              =   -1891.36894043 Ry
     estimated scf accuracy    <       0.00020195 Ry

     total magnetization       =    -0.00 Bohr mag/cell
     absolute magnetization    =     1.50 Bohr mag/cell

     iteration # 19     ecut=    90.00 Ry     beta= 0.30
     Davidson diagonalization with overlap
     ethr =  1.64E-07,  avg # of iterations =  2.2

     negative rho (up, down):  2.246E-02 2.246E-02

     total cpu time spent up to now is      622.4 secs

     total energy              =   -1891.36902311 Ry
     estimated scf accuracy    <       0.00023654 Ry

     total magnetization       =    -0.00 Bohr mag/cell
     absolute magnetization    =     1.46 Bohr mag/cell

     iteration # 20     ecut=    90.00 Ry     beta= 0.30
     Davidson diagonalization with overlap
     ethr =  1.64E-07,  avg # of iterations =  1.1

     negative rho (up, down):  2.246E-02 2.246E-02

     total cpu time spent up to now is      639.6 secs

     total energy              =   -1891.36901696 Ry
     estimated scf accuracy    <       0.00011786 Ry

     total magnetization       =    -0.00 Bohr mag/cell
     absolute magnetization    =     1.46 Bohr mag/cell

     iteration # 21     ecut=    90.00 Ry     beta= 0.30
     Davidson diagonalization with overlap
     ethr =  1.11E-07,  avg # of iterations =  2.0

     negative rho (up, down):  2.246E-02 2.246E-02

     total cpu time spent up to now is      658.6 secs

     total energy              =   -1891.36903826 Ry
     estimated scf accuracy    <       0.00010628 Ry

     total magnetization       =    -0.01 Bohr mag/cell
     absolute magnetization    =     1.46 Bohr mag/cell

     iteration # 22     ecut=    90.00 Ry     beta= 0.30
     Davidson diagonalization with overlap
     ethr =  1.00E-07,  avg # of iterations =  2.1

     negative rho (up, down):  2.246E-02 2.245E-02

     total cpu time spent up to now is      677.3 secs

     total energy              =   -1891.36910049 Ry
     estimated scf accuracy    <       0.00009413 Ry

     total magnetization       =    -0.00 Bohr mag/cell
     absolute magnetization    =     1.42 Bohr mag/cell

     iteration # 23     ecut=    90.00 Ry     beta= 0.30
     Davidson diagonalization with overlap
     ethr =  8.88E-08,  avg # of iterations =  3.0

     negative rho (up, down):  2.245E-02 2.245E-02

     total cpu time spent up to now is      697.2 secs

     total energy              =   -1891.36914508 Ry
     estimated scf accuracy    <       0.00009658 Ry

     total magnetization       =    -0.00 Bohr mag/cell
     absolute magnetization    =     1.37 Bohr mag/cell

     iteration # 24     ecut=    90.00 Ry     beta= 0.30
     Davidson diagonalization with overlap
     ethr =  8.88E-08,  avg # of iterations =  3.2

     negative rho (up, down):  2.245E-02 2.245E-02

     total cpu time spent up to now is      717.6 secs

     total energy              =   -1891.36917023 Ry
     estimated scf accuracy    <       0.00011661 Ry

     total magnetization       =    -0.00 Bohr mag/cell
     absolute magnetization    =     1.31 Bohr mag/cell

     iteration # 25     ecut=    90.00 Ry     beta= 0.30
     Davidson diagonalization with overlap
     ethr =  8.88E-08,  avg # of iterations =  2.0

     negative rho (up, down):  2.246E-02 2.246E-02

     total cpu time spent up to now is      736.0 secs

     total energy              =   -1891.36903713 Ry
     estimated scf accuracy    <       0.00009836 Ry

     total magnetization       =    -0.00 Bohr mag/cell
     absolute magnetization    =     1.33 Bohr mag/cell

     iteration # 26     ecut=    90.00 Ry     beta= 0.30
     Davidson diagonalization with overlap
     c_bands:  1 eigenvalues not converged
     ethr =  8.88E-08,  avg # of iterations =  2.4

     negative rho (up, down):  2.246E-02 2.246E-02

     total cpu time spent up to now is      755.7 secs

     total energy              =   -1891.36892022 Ry
     estimated scf accuracy    <       0.00005776 Ry

     total magnetization       =    -0.00 Bohr mag/cell
     absolute magnetization    =     1.38 Bohr mag/cell

     iteration # 27     ecut=    90.00 Ry     beta= 0.30
     Davidson diagonalization with overlap
     ethr =  5.45E-08,  avg # of iterations =  3.8

     negative rho (up, down):  2.245E-02 2.245E-02

     total cpu time spent up to now is      777.9 secs

     total energy              =   -1891.36904459 Ry
     estimated scf accuracy    <       0.00011891 Ry

     total magnetization       =    -0.00 Bohr mag/cell
     absolute magnetization    =     1.42 Bohr mag/cell

     iteration # 28     ecut=    90.00 Ry     beta= 0.30
     Davidson diagonalization with overlap
     ethr =  5.45E-08,  avg # of iterations =  2.0

     negative rho (up, down):  2.245E-02 2.245E-02

     total cpu time spent up to now is      796.5 secs

     total energy              =   -1891.36907446 Ry
     estimated scf accuracy    <       0.00008811 Ry

     total magnetization       =    -0.00 Bohr mag/cell
     absolute magnetization    =     1.40 Bohr mag/cell

     iteration # 29     ecut=    90.00 Ry     beta= 0.30
     Davidson diagonalization with overlap
     ethr =  5.45E-08,  avg # of iterations =  1.1

     negative rho (up, down):  2.245E-02 2.245E-02

     total cpu time spent up to now is      813.4 secs

     total energy              =   -1891.36908072 Ry
     estimated scf accuracy    <       0.00009196 Ry

     total magnetization       =    -0.00 Bohr mag/cell
     absolute magnetization    =     1.39 Bohr mag/cell

     iteration # 30     ecut=    90.00 Ry     beta= 0.30
     Davidson diagonalization with overlap
     ethr =  5.45E-08,  avg # of iterations =  2.1

     negative rho (up, down):  2.245E-02 2.245E-02

     total cpu time spent up to now is      834.0 secs

     total energy              =   -1891.36917998 Ry
     estimated scf accuracy    <       0.00008210 Ry

     total magnetization       =    -0.00 Bohr mag/cell
     absolute magnetization    =     1.34 Bohr mag/cell

     iteration # 31     ecut=    90.00 Ry     beta= 0.30
     Davidson diagonalization with overlap
     ethr =  5.45E-08,  avg # of iterations =  1.4

     negative rho (up, down):  2.245E-02 2.245E-02

     total cpu time spent up to now is      851.6 secs

     total energy              =   -1891.36890333 Ry
     estimated scf accuracy    <       0.00007463 Ry

     total magnetization       =    -0.00 Bohr mag/cell
     absolute magnetization    =     1.33 Bohr mag/cell

     iteration # 32     ecut=    90.00 Ry     beta= 0.30
     Davidson diagonalization with overlap
     ethr =  5.45E-08,  avg # of iterations =  2.9

     negative rho (up, down):  2.245E-02 2.246E-02

     total cpu time spent up to now is      873.2 secs

     total energy              =   -1891.36875739 Ry
     estimated scf accuracy    <       0.00009537 Ry

     total magnetization       =    -0.00 Bohr mag/cell
     absolute magnetization    =     1.41 Bohr mag/cell

     iteration # 33     ecut=    90.00 Ry     beta= 0.30
     Davidson diagonalization with overlap
     ethr =  5.45E-08,  avg # of iterations =  3.8

     negative rho (up, down):  2.245E-02 2.245E-02

     total cpu time spent up to now is      895.5 secs

     total energy              =   -1891.36882833 Ry
     estimated scf accuracy    <       0.00011867 Ry

     total magnetization       =    -0.00 Bohr mag/cell
     absolute magnetization    =     1.48 Bohr mag/cell

     iteration # 34     ecut=    90.00 Ry     beta= 0.30
     Davidson diagonalization with overlap
     ethr =  5.45E-08,  avg # of iterations =  4.1

     negative rho (up, down):  2.245E-02 2.245E-02

     total cpu time spent up to now is      917.6 secs

     total energy              =   -1891.36827602 Ry
     estimated scf accuracy    <       0.00011639 Ry

     total magnetization       =    -0.00 Bohr mag/cell
     absolute magnetization    =     1.38 Bohr mag/cell

     iteration # 35     ecut=    90.00 Ry     beta= 0.30
     Davidson diagonalization with overlap
     ethr =  5.45E-08,  avg # of iterations =  4.7

     negative rho (up, down):  2.245E-02 2.245E-02

     total cpu time spent up to now is      943.1 secs

     total energy              =   -1891.36957595 Ry
     estimated scf accuracy    <       0.00032811 Ry

     total magnetization       =    -0.01 Bohr mag/cell
     absolute magnetization    =     1.16 Bohr mag/cell

     iteration # 36     ecut=    90.00 Ry     beta= 0.30
     Davidson diagonalization with overlap
     ethr =  5.45E-08,  avg # of iterations =  1.9

     negative rho (up, down):  2.245E-02 2.245E-02

     total cpu time spent up to now is      961.6 secs

     total energy              =   -1891.36965506 Ry
     estimated scf accuracy    <       0.00033743 Ry

     total magnetization       =    -0.01 Bohr mag/cell
     absolute magnetization    =     1.13 Bohr mag/cell

     iteration # 37     ecut=    90.00 Ry     beta= 0.30
     Davidson diagonalization with overlap
     ethr =  5.45E-08,  avg # of iterations =  2.1

     negative rho (up, down):  2.245E-02 2.245E-02

     total cpu time spent up to now is      980.7 secs

     total energy              =   -1891.36792133 Ry
     estimated scf accuracy    <       0.00045325 Ry

     total magnetization       =    -0.01 Bohr mag/cell
     absolute magnetization    =     1.10 Bohr mag/cell

     iteration # 38     ecut=    90.00 Ry     beta= 0.30
     Davidson diagonalization with overlap
     ethr =  5.45E-08,  avg # of iterations =  4.6

     negative rho (up, down):  2.245E-02 2.245E-02

     total cpu time spent up to now is     1005.3 secs

     total energy              =   -1891.36719543 Ry
     estimated scf accuracy    <       0.00008717 Ry

     total magnetization       =    -0.00 Bohr mag/cell
     absolute magnetization    =     1.33 Bohr mag/cell

     iteration # 39     ecut=    90.00 Ry     beta= 0.30
     Davidson diagonalization with overlap
     ethr =  5.45E-08,  avg # of iterations =  5.6

     negative rho (up, down):  2.245E-02 2.245E-02

     total cpu time spent up to now is     1032.1 secs

     total energy              =   -1891.36875194 Ry
     estimated scf accuracy    <       0.00023092 Ry

     total magnetization       =     0.00 Bohr mag/cell
     absolute magnetization    =     1.54 Bohr mag/cell

     iteration # 40     ecut=    90.00 Ry     beta= 0.30
     Davidson diagonalization with overlap
     ethr =  5.45E-08,  avg # of iterations =  1.0

     negative rho (up, down):  2.245E-02 2.245E-02

     total cpu time spent up to now is     1049.2 secs

     total energy              =   -1891.36875032 Ry
     estimated scf accuracy    <       0.00021782 Ry

     total magnetization       =     0.00 Bohr mag/cell
     absolute magnetization    =     1.54 Bohr mag/cell

     iteration # 41     ecut=    90.00 Ry     beta= 0.30
     Davidson diagonalization with overlap
     ethr =  5.45E-08,  avg # of iterations =  3.4

     negative rho (up, down):  2.245E-02 2.245E-02

     total cpu time spent up to now is     1070.9 secs

     total energy              =   -1891.36834363 Ry
     estimated scf accuracy    <       0.00009257 Ry

     total magnetization       =    -0.00 Bohr mag/cell
     absolute magnetization    =     1.47 Bohr mag/cell

     iteration # 42     ecut=    90.00 Ry     beta= 0.30
     Davidson diagonalization with overlap
     ethr =  5.45E-08,  avg # of iterations =  3.8

     negative rho (up, down):  2.245E-02 2.245E-02

     total cpu time spent up to now is     1092.7 secs

     total energy              =   -1891.36835665 Ry
     estimated scf accuracy    <       0.00027765 Ry

     total magnetization       =     0.00 Bohr mag/cell
     absolute magnetization    =     1.56 Bohr mag/cell

     iteration # 43     ecut=    90.00 Ry     beta= 0.30
     Davidson diagonalization with overlap
     ethr =  5.45E-08,  avg # of iterations =  3.0

     negative rho (up, down):  2.245E-02 2.245E-02

     total cpu time spent up to now is     1113.9 secs

     total energy              =   -1891.36352816 Ry
     estimated scf accuracy    <       0.00054665 Ry

     total magnetization       =     0.00 Bohr mag/cell
     absolute magnetization    =     1.61 Bohr mag/cell

     iteration # 44     ecut=    90.00 Ry     beta= 0.30
     Davidson diagonalization with overlap
     ethr =  5.45E-08,  avg # of iterations =  5.7

     negative rho (up, down):  2.245E-02 2.245E-02

     total cpu time spent up to now is     1144.6 secs

     total energy              =   -1891.36684482 Ry
     estimated scf accuracy    <       0.00040345 Ry

     total magnetization       =    -0.01 Bohr mag/cell
     absolute magnetization    =     1.14 Bohr mag/cell

     iteration # 45     ecut=    90.00 Ry     beta= 0.30
     Davidson diagonalization with overlap
     ethr =  5.45E-08,  avg # of iterations =  5.5

     negative rho (up, down):  2.245E-02 2.245E-02

     total cpu time spent up to now is     1171.4 secs

     total energy              =   -1891.36889426 Ry
     estimated scf accuracy    <       0.00013240 Ry

     total magnetization       =    -0.00 Bohr mag/cell
     absolute magnetization    =     1.43 Bohr mag/cell

     iteration # 46     ecut=    90.00 Ry     beta= 0.30
     Davidson diagonalization with overlap
     ethr =  5.45E-08,  avg # of iterations =  3.9

     negative rho (up, down):  2.245E-02 2.245E-02

     total cpu time spent up to now is     1193.4 secs

     total energy              =   -1891.36878711 Ry
     estimated scf accuracy    <       0.00013655 Ry

     total magnetization       =    -0.00 Bohr mag/cell
     absolute magnetization    =     1.32 Bohr mag/cell

     iteration # 47     ecut=    90.00 Ry     beta= 0.30
     Davidson diagonalization with overlap
     ethr =  5.45E-08,  avg # of iterations =  3.7

     negative rho (up, down):  2.245E-02 2.245E-02

     total cpu time spent up to now is     1215.3 secs

     total energy              =   -1891.36905717 Ry
     estimated scf accuracy    <       0.00010323 Ry

     total magnetization       =    -0.00 Bohr mag/cell
     absolute magnetization    =     1.42 Bohr mag/cell

     iteration # 48     ecut=    90.00 Ry     beta= 0.30
     Davidson diagonalization with overlap
     ethr =  5.45E-08,  avg # of iterations =  2.4

     negative rho (up, down):  2.245E-02 2.245E-02

     total cpu time spent up to now is     1235.5 secs

     total energy              =   -1891.36909808 Ry
     estimated scf accuracy    <       0.00010875 Ry

     total magnetization       =    -0.00 Bohr mag/cell
     absolute magnetization    =     1.37 Bohr mag/cell

     iteration # 49     ecut=    90.00 Ry     beta= 0.30
     Davidson diagonalization with overlap
     ethr =  5.45E-08,  avg # of iterations =  3.8

     negative rho (up, down):  2.245E-02 2.245E-02

     total cpu time spent up to now is     1257.2 secs

     total energy              =   -1891.36926116 Ry
     estimated scf accuracy    <       0.00015328 Ry

     total magnetization       =    -0.00 Bohr mag/cell
     absolute magnetization    =     1.29 Bohr mag/cell

     iteration # 50     ecut=    90.00 Ry     beta= 0.30
     Davidson diagonalization with overlap
     ethr =  5.45E-08,  avg # of iterations =  1.0

     negative rho (up, down):  2.245E-02 2.245E-02

     total cpu time spent up to now is     1274.3 secs

     total energy              =   -1891.36914593 Ry
     estimated scf accuracy    <       0.00015341 Ry

     total magnetization       =    -0.00 Bohr mag/cell
     absolute magnetization    =     1.29 Bohr mag/cell

     iteration # 51     ecut=    90.00 Ry     beta= 0.30
     Davidson diagonalization with overlap
     ethr =  5.45E-08,  avg # of iterations =  2.0

     negative rho (up, down):  2.245E-02 2.245E-02

     total cpu time spent up to now is     1293.9 secs

     total energy              =   -1891.36899816 Ry
     estimated scf accuracy    <       0.00011609 Ry

     total magnetization       =    -0.00 Bohr mag/cell
     absolute magnetization    =     1.33 Bohr mag/cell

     iteration # 52     ecut=    90.00 Ry     beta= 0.30
     Davidson diagonalization with overlap
     ethr =  5.45E-08,  avg # of iterations =  4.4

     negative rho (up, down):  2.245E-02 2.245E-02

     total cpu time spent up to now is     1316.4 secs

     total energy              =   -1891.35874761 Ry
     estimated scf accuracy    <       0.00027171 Ry

     total magnetization       =    -0.01 Bohr mag/cell
     absolute magnetization    =     1.19 Bohr mag/cell

     iteration # 53     ecut=    90.00 Ry     beta= 0.30
     Davidson diagonalization with overlap
     ethr =  5.45E-08,  avg # of iterations =  6.4
     Minimization algorithm failed to find Fermi energy: reverting to bisection
     Possible cause: smearing is larger than the electronic band-gap.

     negative rho (up, down):  2.245E-02 2.245E-02

     total cpu time spent up to now is     1349.8 secs

     total energy              =   -1891.36198361 Ry
     estimated scf accuracy    <       0.00128246 Ry

     total magnetization       =     0.00 Bohr mag/cell
     absolute magnetization    =     1.68 Bohr mag/cell

     iteration # 54     ecut=    90.00 Ry     beta= 0.30
     Davidson diagonalization with overlap
     ethr =  5.45E-08,  avg # of iterations =  6.1

     negative rho (up, down):  2.245E-02 2.245E-02

     total cpu time spent up to now is     1382.2 secs

     total energy              =   -1891.36667918 Ry
     estimated scf accuracy    <       0.00024457 Ry

     total magnetization       =    -0.01 Bohr mag/cell
     absolute magnetization    =     1.19 Bohr mag/cell

     iteration # 55     ecut=    90.00 Ry     beta= 0.30
     Davidson diagonalization with overlap
     c_bands:  1 eigenvalues not converged
     ethr =  5.45E-08,  avg # of iterations =  6.5

     negative rho (up, down):  2.245E-02 2.245E-02

     total cpu time spent up to now is     1412.6 secs

     total energy              =   -1891.37171581 Ry
     estimated scf accuracy    <       0.00214560 Ry

     total magnetization       =    -0.02 Bohr mag/cell
     absolute magnetization    =     0.72 Bohr mag/cell

     iteration # 56     ecut=    90.00 Ry     beta= 0.30
     Davidson diagonalization with overlap
     ethr =  5.45E-08,  avg # of iterations =  2.1

     negative rho (up, down):  2.245E-02 2.245E-02

     total cpu time spent up to now is     1432.5 secs

     total energy              =   -1891.37150377 Ry
     estimated scf accuracy    <       0.00238849 Ry

     total magnetization       =    -0.02 Bohr mag/cell
     absolute magnetization    =     0.68 Bohr mag/cell

     iteration # 57     ecut=    90.00 Ry     beta= 0.30
     Davidson diagonalization with overlap
     ethr =  5.45E-08,  avg # of iterations =  2.0

     negative rho (up, down):  2.245E-02 2.245E-02

     total cpu time spent up to now is     1451.1 secs

     total energy              =   -1891.37173931 Ry
     estimated scf accuracy    <       0.00220363 Ry

     total magnetization       =    -0.02 Bohr mag/cell
     absolute magnetization    =     0.71 Bohr mag/cell

     iteration # 58     ecut=    90.00 Ry     beta= 0.30
     Davidson diagonalization with overlap
     ethr =  5.45E-08,  avg # of iterations =  2.0

     negative rho (up, down):  2.245E-02 2.245E-02

     total cpu time spent up to now is     1470.1 secs

     total energy              =   -1891.37230525 Ry
     estimated scf accuracy    <       0.00236988 Ry

     total magnetization       =    -0.02 Bohr mag/cell
     absolute magnetization    =     0.68 Bohr mag/cell

     iteration # 59     ecut=    90.00 Ry     beta= 0.30
     Davidson diagonalization with overlap
     ethr =  5.45E-08,  avg # of iterations =  3.9

     negative rho (up, down):  2.245E-02 2.245E-02

     total cpu time spent up to now is     1491.8 secs

     total energy              =   -1891.36999440 Ry
     estimated scf accuracy    <       0.00280769 Ry

     total magnetization       =    -0.02 Bohr mag/cell
     absolute magnetization    =     0.59 Bohr mag/cell

     iteration # 60     ecut=    90.00 Ry     beta= 0.30
     Davidson diagonalization with overlap
     ethr =  5.45E-08,  avg # of iterations =  4.3

     negative rho (up, down):  2.245E-02 2.245E-02

     total cpu time spent up to now is     1515.3 secs

     total energy              =   -1891.37147848 Ry
     estimated scf accuracy    <       0.00178602 Ry

     total magnetization       =    -0.02 Bohr mag/cell
     absolute magnetization    =     0.79 Bohr mag/cell

     iteration # 61     ecut=    90.00 Ry     beta= 0.30
     Davidson diagonalization with overlap
     ethr =  5.45E-08,  avg # of iterations =  3.8

     negative rho (up, down):  2.245E-02 2.245E-02

     total cpu time spent up to now is     1537.1 secs

     total energy              =   -1891.36980311 Ry
     estimated scf accuracy    <       0.00238638 Ry

     total magnetization       =    -0.02 Bohr mag/cell
     absolute magnetization    =     0.67 Bohr mag/cell

     iteration # 62     ecut=    90.00 Ry     beta= 0.30
     Davidson diagonalization with overlap
     ethr =  5.45E-08,  avg # of iterations =  4.4

     negative rho (up, down):  2.245E-02 2.245E-02

     total cpu time spent up to now is     1560.4 secs

     total energy              =   -1891.36299486 Ry
     estimated scf accuracy    <       0.00143534 Ry

     total magnetization       =    -0.02 Bohr mag/cell
     absolute magnetization    =     0.86 Bohr mag/cell

     iteration # 63     ecut=    90.00 Ry     beta= 0.30
     Davidson diagonalization with overlap
     ethr =  5.45E-08,  avg # of iterations =  6.3

     negative rho (up, down):  2.245E-02 2.245E-02

     total cpu time spent up to now is     1591.1 secs

     total energy              =   -1891.36887073 Ry
     estimated scf accuracy    <       0.00014327 Ry

     total magnetization       =    -0.00 Bohr mag/cell
     absolute magnetization    =     1.36 Bohr mag/cell

     iteration # 64     ecut=    90.00 Ry     beta= 0.30
     Davidson diagonalization with overlap
     ethr =  5.45E-08,  avg # of iterations =  3.9

     negative rho (up, down):  2.245E-02 2.245E-02

     total cpu time spent up to now is     1612.9 secs

     total energy              =   -1891.36790041 Ry
     estimated scf accuracy    <       0.00006423 Ry

     total magnetization       =     0.00 Bohr mag/cell
     absolute magnetization    =     1.43 Bohr mag/cell

     iteration # 65     ecut=    90.00 Ry     beta= 0.30
     Davidson diagonalization with overlap
     ethr =  5.45E-08,  avg # of iterations =  4.5

     negative rho (up, down):  2.245E-02 2.245E-02

     total cpu time spent up to now is     1637.7 secs

     total energy              =   -1891.36743864 Ry
     estimated scf accuracy    <       0.00031374 Ry

     total magnetization       =     0.00 Bohr mag/cell
     absolute magnetization    =     1.57 Bohr mag/cell

     iteration # 66     ecut=    90.00 Ry     beta= 0.30
     Davidson diagonalization with overlap
     ethr =  5.45E-08,  avg # of iterations =  4.4

     negative rho (up, down):  2.245E-02 2.245E-02

     total cpu time spent up to now is     1662.3 secs

     total energy              =   -1891.36013014 Ry
     estimated scf accuracy    <       0.00114576 Ry

     total magnetization       =     0.00 Bohr mag/cell
     absolute magnetization    =     1.67 Bohr mag/cell

     iteration # 67     ecut=    90.00 Ry     beta= 0.30
     Davidson diagonalization with overlap
     ethr =  5.45E-08,  avg # of iterations =  6.7

     negative rho (up, down):  2.245E-02 2.245E-02

     total cpu time spent up to now is     1694.3 secs

     total energy              =   -1891.36473400 Ry
     estimated scf accuracy    <       0.00680282 Ry

     total magnetization       =     0.01 Bohr mag/cell
     absolute magnetization    =     1.86 Bohr mag/cell

     iteration # 68     ecut=    90.00 Ry     beta= 0.30
     Davidson diagonalization with overlap
     ethr =  5.45E-08,  avg # of iterations =  3.5

     negative rho (up, down):  2.245E-02 2.245E-02

     total cpu time spent up to now is     1716.0 secs

     total energy              =   -1891.36363979 Ry
     estimated scf accuracy    <       0.00468836 Ry

     total magnetization       =     0.01 Bohr mag/cell
     absolute magnetization    =     1.82 Bohr mag/cell

     iteration # 69     ecut=    90.00 Ry     beta= 0.30
     Davidson diagonalization with overlap
     ethr =  5.45E-08,  avg # of iterations =  2.8

     negative rho (up, down):  2.245E-02 2.245E-02

     total cpu time spent up to now is     1737.0 secs

     total energy              =   -1891.36588351 Ry
     estimated scf accuracy    <       0.00596757 Ry

     total magnetization       =     0.00 Bohr mag/cell
     absolute magnetization    =     1.85 Bohr mag/cell

     iteration # 70     ecut=    90.00 Ry     beta= 0.30
     Davidson diagonalization with overlap
     ethr =  5.45E-08,  avg # of iterations =  5.4

     negative rho (up, down):  2.245E-02 2.245E-02

     total cpu time spent up to now is     1763.9 secs

     total energy              =   -1891.36657095 Ry
     estimated scf accuracy    <       0.00149832 Ry

     total magnetization       =     0.00 Bohr mag/cell
     absolute magnetization    =     1.72 Bohr mag/cell

     iteration # 71     ecut=    90.00 Ry     beta= 0.30
     Davidson diagonalization with overlap
     ethr =  5.45E-08,  avg # of iterations =  5.7

     negative rho (up, down):  2.245E-02 2.245E-02

     total cpu time spent up to now is     1793.1 secs

     total energy              =   -1891.36888908 Ry
     estimated scf accuracy    <       0.00008241 Ry

     total magnetization       =     0.00 Bohr mag/cell
     absolute magnetization    =     1.50 Bohr mag/cell

     iteration # 72     ecut=    90.00 Ry     beta= 0.30
     Davidson diagonalization with overlap
     ethr =  5.45E-08,  avg # of iterations =  2.0

     negative rho (up, down):  2.245E-02 2.245E-02

     total cpu time spent up to now is     1812.2 secs

     total energy              =   -1891.36891216 Ry
     estimated scf accuracy    <       0.00005934 Ry

     total magnetization       =     0.00 Bohr mag/cell
     absolute magnetization    =     1.48 Bohr mag/cell

     iteration # 73     ecut=    90.00 Ry     beta= 0.30
     Davidson diagonalization with overlap
     ethr =  5.45E-08,  avg # of iterations =  3.6

     negative rho (up, down):  2.245E-02 2.245E-02

     total cpu time spent up to now is     1833.9 secs

     total energy              =   -1891.36905863 Ry
     estimated scf accuracy    <       0.00005011 Ry

     total magnetization       =     0.00 Bohr mag/cell
     absolute magnetization    =     1.42 Bohr mag/cell

     iteration # 74     ecut=    90.00 Ry     beta= 0.30
     Davidson diagonalization with overlap
     ethr =  4.73E-08,  avg # of iterations =  2.0

     negative rho (up, down):  2.245E-02 2.245E-02

     total cpu time spent up to now is     1852.9 secs

     total energy              =   -1891.36909532 Ry
     estimated scf accuracy    <       0.00004307 Ry

     total magnetization       =    -0.00 Bohr mag/cell
     absolute magnetization    =     1.40 Bohr mag/cell

     iteration # 75     ecut=    90.00 Ry     beta= 0.30
     Davidson diagonalization with overlap
     ethr =  4.06E-08,  avg # of iterations =  2.2

     negative rho (up, down):  2.245E-02 2.245E-02

     total cpu time spent up to now is     1872.7 secs

     total energy              =   -1891.36868924 Ry
     estimated scf accuracy    <       0.00005265 Ry

     total magnetization       =    -0.00 Bohr mag/cell
     absolute magnetization    =     1.36 Bohr mag/cell

     iteration # 76     ecut=    90.00 Ry     beta= 0.30
     Davidson diagonalization with overlap
     ethr =  4.06E-08,  avg # of iterations =  4.8

     negative rho (up, down):  2.245E-02 2.245E-02

     total cpu time spent up to now is     1898.1 secs

     total energy              =   -1891.36948734 Ry
     estimated scf accuracy    <       0.00024445 Ry

     total magnetization       =    -0.00 Bohr mag/cell
     absolute magnetization    =     1.19 Bohr mag/cell

     iteration # 77     ecut=    90.00 Ry     beta= 0.30
     Davidson diagonalization with overlap
     ethr =  4.06E-08,  avg # of iterations =  3.9

     negative rho (up, down):  2.245E-02 2.245E-02

     total cpu time spent up to now is     1919.7 secs

     total energy              =   -1891.36970257 Ry
     estimated scf accuracy    <       0.00028847 Ry

     total magnetization       =    -0.01 Bohr mag/cell
     absolute magnetization    =     1.10 Bohr mag/cell

     iteration # 78     ecut=    90.00 Ry     beta= 0.30
     Davidson diagonalization with overlap
     ethr =  4.06E-08,  avg # of iterations =  2.0

     negative rho (up, down):  2.245E-02 2.245E-02

     total cpu time spent up to now is     1938.5 secs

     total energy              =   -1891.36969588 Ry
     estimated scf accuracy    <       0.00038561 Ry

     total magnetization       =    -0.01 Bohr mag/cell
     absolute magnetization    =     1.08 Bohr mag/cell

     iteration # 79     ecut=    90.00 Ry     beta= 0.30
     Davidson diagonalization with overlap
     ethr =  4.06E-08,  avg # of iterations =  1.0

     negative rho (up, down):  2.245E-02 2.245E-02

     total cpu time spent up to now is     1955.7 secs

     total energy              =   -1891.36493572 Ry
     estimated scf accuracy    <       0.00048208 Ry

     total magnetization       =    -0.01 Bohr mag/cell
     absolute magnetization    =     1.09 Bohr mag/cell

     iteration # 80     ecut=    90.00 Ry     beta= 0.30
     Davidson diagonalization with overlap
     ethr =  4.06E-08,  avg # of iterations =  5.8

     negative rho (up, down):  2.245E-02 2.245E-02

     total cpu time spent up to now is     1985.5 secs

     total energy              =   -1891.36896924 Ry
     estimated scf accuracy    <       0.00011874 Ry

     total magnetization       =     0.00 Bohr mag/cell
     absolute magnetization    =     1.47 Bohr mag/cell

     iteration # 81     ecut=    90.00 Ry     beta= 0.30
     Davidson diagonalization with overlap
     ethr =  4.06E-08,  avg # of iterations =  2.0

     negative rho (up, down):  2.245E-02 2.245E-02

     total cpu time spent up to now is     2004.6 secs

     total energy              =   -1891.36852863 Ry
     estimated scf accuracy    <       0.00010857 Ry

     total magnetization       =     0.00 Bohr mag/cell
     absolute magnetization    =     1.45 Bohr mag/cell

     iteration # 82     ecut=    90.00 Ry     beta= 0.30
     Davidson diagonalization with overlap
     ethr =  4.06E-08,  avg # of iterations =  4.0

     negative rho (up, down):  2.245E-02 2.245E-02

     total cpu time spent up to now is     2026.6 secs

     total energy              =   -1891.36855269 Ry
     estimated scf accuracy    <       0.00021848 Ry

     total magnetization       =     0.00 Bohr mag/cell
     absolute magnetization    =     1.53 Bohr mag/cell

     iteration # 83     ecut=    90.00 Ry     beta= 0.30
     Davidson diagonalization with overlap
     ethr =  4.06E-08,  avg # of iterations =  2.7

     negative rho (up, down):  2.245E-02 2.245E-02

     total cpu time spent up to now is     2047.9 secs

     total energy              =   -1891.36813330 Ry
     estimated scf accuracy    <       0.00035135 Ry

     total magnetization       =     0.00 Bohr mag/cell
     absolute magnetization    =     1.57 Bohr mag/cell

     iteration # 84     ecut=    90.00 Ry     beta= 0.30
     Davidson diagonalization with overlap
     ethr =  4.06E-08,  avg # of iterations =  4.1

     negative rho (up, down):  2.245E-02 2.245E-02

     total cpu time spent up to now is     2070.4 secs

     total energy              =   -1891.36846489 Ry
     estimated scf accuracy    <       0.00070480 Ry

     total magnetization       =     0.00 Bohr mag/cell
     absolute magnetization    =     1.63 Bohr mag/cell

     iteration # 85     ecut=    90.00 Ry     beta= 0.30
     Davidson diagonalization with overlap
     ethr =  4.06E-08,  avg # of iterations =  3.8

     negative rho (up, down):  2.245E-02 2.245E-02

     total cpu time spent up to now is     2092.5 secs

     total energy              =   -1891.34751240 Ry
     estimated scf accuracy    <       0.00032329 Ry

     total magnetization       =     0.00 Bohr mag/cell
     absolute magnetization    =     1.57 Bohr mag/cell

     iteration # 86     ecut=    90.00 Ry     beta= 0.30
     Davidson diagonalization with overlap
     c_bands:  1 eigenvalues not converged
     c_bands:  1 eigenvalues not converged
     c_bands:  1 eigenvalues not converged
     ethr =  4.06E-08,  avg # of iterations =  8.8

     negative rho (up, down):  2.245E-02 2.245E-02

     total cpu time spent up to now is     2131.0 secs

     total energy              =   -1891.36517599 Ry
     estimated scf accuracy    <       0.00307546 Ry

     total magnetization       =    -0.02 Bohr mag/cell
     absolute magnetization    =     0.53 Bohr mag/cell

     iteration # 87     ecut=    90.00 Ry     beta= 0.30
     Davidson diagonalization with overlap
     ethr =  4.06E-08,  avg # of iterations =  5.9

     negative rho (up, down):  2.245E-02 2.245E-02

     total cpu time spent up to now is     2160.9 secs

     total energy              =   -1891.36989492 Ry
     estimated scf accuracy    <       0.00080467 Ry

     total magnetization       =    -0.01 Bohr mag/cell
     absolute magnetization    =     0.98 Bohr mag/cell

     iteration # 88     ecut=    90.00 Ry     beta= 0.30
     Davidson diagonalization with overlap
     ethr =  4.06E-08,  avg # of iterations =  5.2

     negative rho (up, down):  2.245E-02 2.245E-02

     total cpu time spent up to now is     2186.8 secs

     total energy              =   -1891.37141799 Ry
     estimated scf accuracy    <       0.00194833 Ry

     total magnetization       =    -0.01 Bohr mag/cell
     absolute magnetization    =     0.73 Bohr mag/cell

     iteration # 89     ecut=    90.00 Ry     beta= 0.30
     Davidson diagonalization with overlap
     ethr =  4.06E-08,  avg # of iterations =  1.0

     negative rho (up, down):  2.245E-02 2.245E-02

     total cpu time spent up to now is     2203.6 secs

     total energy              =   -1891.37112487 Ry
     estimated scf accuracy    <       0.00201050 Ry

     total magnetization       =    -0.01 Bohr mag/cell
     absolute magnetization    =     0.72 Bohr mag/cell

     iteration # 90     ecut=    90.00 Ry     beta= 0.30
     Davidson diagonalization with overlap
     ethr =  4.06E-08,  avg # of iterations =  2.0

     negative rho (up, down):  2.245E-02 2.245E-02

     total cpu time spent up to now is     2223.2 secs

     total energy              =   -1891.37157042 Ry
     estimated scf accuracy    <       0.00179496 Ry

     total magnetization       =    -0.01 Bohr mag/cell
     absolute magnetization    =     0.76 Bohr mag/cell

     iteration # 91     ecut=    90.00 Ry     beta= 0.30
     Davidson diagonalization with overlap
     ethr =  4.06E-08,  avg # of iterations =  2.6

     negative rho (up, down):  2.245E-02 2.245E-02

     total cpu time spent up to now is     2244.0 secs

     total energy              =   -1891.37234345 Ry
     estimated scf accuracy    <       0.00227260 Ry

     total magnetization       =    -0.01 Bohr mag/cell
     absolute magnetization    =     0.68 Bohr mag/cell

     iteration # 92     ecut=    90.00 Ry     beta= 0.30
     Davidson diagonalization with overlap
     ethr =  4.06E-08,  avg # of iterations =  4.1

     negative rho (up, down):  2.245E-02 2.245E-02

     total cpu time spent up to now is     2266.6 secs

     total energy              =   -1891.37265587 Ry
     estimated scf accuracy    <       0.00289108 Ry

     total magnetization       =    -0.02 Bohr mag/cell
     absolute magnetization    =     0.57 Bohr mag/cell

     iteration # 93     ecut=    90.00 Ry     beta= 0.30
     Davidson diagonalization with overlap
     ethr =  4.06E-08,  avg # of iterations =  1.0

     negative rho (up, down):  2.245E-02 2.245E-02

     total cpu time spent up to now is     2283.6 secs

     total energy              =   -1891.33537345 Ry
     estimated scf accuracy    <       0.00292171 Ry

     total magnetization       =    -0.02 Bohr mag/cell
     absolute magnetization    =     0.57 Bohr mag/cell

     iteration # 94     ecut=    90.00 Ry     beta= 0.30
     Davidson diagonalization with overlap
     ethr =  4.06E-08,  avg # of iterations =  8.3

     negative rho (up, down):  2.245E-02 2.245E-02

     total cpu time spent up to now is     2323.0 secs

     total energy              =   -1891.36828763 Ry
     estimated scf accuracy    <       0.00072840 Ry

     total magnetization       =     0.00 Bohr mag/cell
     absolute magnetization    =     1.62 Bohr mag/cell

     iteration # 95     ecut=    90.00 Ry     beta= 0.30
     Davidson diagonalization with overlap
     ethr =  4.06E-08,  avg # of iterations =  1.9

     negative rho (up, down):  2.245E-02 2.245E-02

     total cpu time spent up to now is     2341.3 secs

     total energy              =   -1891.36845896 Ry
     estimated scf accuracy    <       0.00091835 Ry

     total magnetization       =     0.00 Bohr mag/cell
     absolute magnetization    =     1.63 Bohr mag/cell

     iteration # 96     ecut=    90.00 Ry     beta= 0.30
     Davidson diagonalization with overlap
     ethr =  4.06E-08,  avg # of iterations =  2.8

     negative rho (up, down):  2.245E-02 2.245E-02

     total cpu time spent up to now is     2362.2 secs

     total energy              =   -1891.36676745 Ry
     estimated scf accuracy    <       0.00053940 Ry

     total magnetization       =     0.00 Bohr mag/cell
     absolute magnetization    =     1.59 Bohr mag/cell

     iteration # 97     ecut=    90.00 Ry     beta= 0.30
     Davidson diagonalization with overlap
     ethr =  4.06E-08,  avg # of iterations =  4.2

     negative rho (up, down):  2.245E-02 2.245E-02

     total cpu time spent up to now is     2386.9 secs

     total energy              =   -1891.36547402 Ry
     estimated scf accuracy    <       0.00163963 Ry

     total magnetization       =     0.00 Bohr mag/cell
     absolute magnetization    =     1.71 Bohr mag/cell

     iteration # 98     ecut=    90.00 Ry     beta= 0.30
     Davidson diagonalization with overlap
     ethr =  4.06E-08,  avg # of iterations =  4.1

     negative rho (up, down):  2.245E-02 2.245E-02

     total cpu time spent up to now is     2411.7 secs

     total energy              =   -1891.36518127 Ry
     estimated scf accuracy    <       0.00315866 Ry

     total magnetization       =     0.00 Bohr mag/cell
     absolute magnetization    =     1.79 Bohr mag/cell

     iteration # 99     ecut=    90.00 Ry     beta= 0.30
     Davidson diagonalization with overlap
     ethr =  4.06E-08,  avg # of iterations =  2.9

     negative rho (up, down):  2.245E-02 2.245E-02

     total cpu time spent up to now is     2432.5 secs

     total energy              =   -1891.36302663 Ry
     estimated scf accuracy    <       0.00397139 Ry

     total magnetization       =     0.00 Bohr mag/cell
     absolute magnetization    =     1.81 Bohr mag/cell

     iteration #100     ecut=    90.00 Ry     beta= 0.30
     Davidson diagonalization with overlap
     ethr =  4.06E-08,  avg # of iterations =  4.3

     negative rho (up, down):  2.245E-02 2.245E-02

     total cpu time spent up to now is     2456.9 secs

     total energy              =   -1891.36534404 Ry
     estimated scf accuracy    <       0.00626044 Ry

     total magnetization       =     0.00 Bohr mag/cell
     absolute magnetization    =     1.86 Bohr mag/cell

     End of self-consistent calculation

     convergence NOT achieved after 100 iterations: stopping

     Writing config to output data dir ./YBCO7/YBCO7.save/
 
     init_run     :     19.93s CPU     22.18s WALL (       1 calls)
     electrons    :   2327.43s CPU   2434.42s WALL (       1 calls)

     Called by init_run:
     wfcinit      :     15.99s CPU     17.76s WALL (       1 calls)
     potinit      :      0.97s CPU      1.07s WALL (       1 calls)
     hinit0       :      1.45s CPU      1.56s WALL (       1 calls)

     Called by electrons:
     c_bands      :   1745.72s CPU   1797.79s WALL (     100 calls)
     sum_band     :    420.92s CPU    453.66s WALL (     100 calls)
     v_of_rho     :     14.19s CPU     14.54s WALL (     101 calls)
     newd         :     95.37s CPU    117.31s WALL (     101 calls)
     PAW_pot      :     48.62s CPU     48.65s WALL (     101 calls)
     mix_rho      :      3.39s CPU      3.50s WALL (     100 calls)

     Called by c_bands:
     init_us_2    :     29.23s CPU     29.58s WALL (   10908 calls)
     init_us_2:cp :     29.19s CPU     29.55s WALL (   10908 calls)
     cegterg      :   1602.78s CPU   1652.86s WALL (    5400 calls)

     Called by *egterg:
     cdiaghg      :     64.97s CPU     65.71s WALL (   24034 calls)
     h_psi        :   1005.73s CPU   1043.48s WALL (   24088 calls)
     s_psi        :    123.56s CPU    124.46s WALL (   24142 calls)
     g_psi        :      5.35s CPU      5.37s WALL (   18634 calls)

     Called by h_psi:
     h_psi:calbec :    125.73s CPU    130.23s WALL (   24088 calls)
     vloc_psi     :    709.31s CPU    738.78s WALL (   24088 calls)
     add_vuspsi   :    118.90s CPU    119.52s WALL (   24088 calls)
     vhpsi        :     41.36s CPU     44.38s WALL (   24088 calls)

     General routines
     calbec       :    194.00s CPU    203.19s WALL (   59030 calls)
     fft          :      6.74s CPU      7.10s WALL (    2523 calls)
     ffts         :      0.25s CPU      0.26s WALL (     402 calls)
     fftw         :    654.21s CPU    682.59s WALL ( 2174874 calls)
     interpolate  :      0.78s CPU      0.81s WALL (     202 calls)
     davcio       :      0.04s CPU      0.14s WALL (     126 calls)
 
     Parallel routines

     Hubbard U routines
     new_ns       :      8.45s CPU      8.74s WALL (     100 calls)
     vhpsi        :     41.36s CPU     44.38s WALL (   24088 calls)
 
     PWSCF        :  39m 7.77s CPU  40m57.16s WALL

 
   This run was terminated on:  23:46: 5  23Dec2023            

=------------------------------------------------------------------------------=
   JOB DONE.
=------------------------------------------------------------------------------=
