
     Program PWSCF v.7.2 starts on 16Dec2023 at  0: 2:48 

     This program is part of the open-source Quantum ESPRESSO suite
     for quantum simulation of materials; please cite
         "P. Giannozzi et al., J. Phys.:Condens. Matter 21 395502 (2009);
         "P. Giannozzi et al., J. Phys.:Condens. Matter 29 465901 (2017);
         "P. Giannozzi et al., J. Chem. Phys. 152 154105 (2020);
          URL http://www.quantum-espresso.org", 
     in publications or presentations arising from this work. More details at
     http://www.quantum-espresso.org/quote

     Parallel version (MPI), running on     4 processors

     MPI processes distributed on     1 nodes
     5590 MiB available memory on the printing compute node when the environment starts
 
     Waiting for input...
     Reading input from standard input

     Current dimensions of program PWSCF are:
     Max number of different atomic species (ntypx) = 10
     Max number of k-points (npk) =  40000
     Max angular momentum in pseudopotentials (lmaxx) =  4
 
     R & G space division:  proc/nbgrp/npool/nimage =       4
     Subspace diagonalization in iterative solution of the eigenvalue problem:
     a serial algorithm will be used

 
     Parallelization info
     --------------------
     sticks:   dense  smooth     PW     G-vecs:    dense   smooth      PW
     Min         756     377    107                95412    33713    5119
     Max         757     378    109                95423    33722    5122
     Sum        3027    1511    433               381679   134875   20483
 
     Using Slab Decomposition
 


     bravais-lattice index     =            8
     lattice parameter (alat)  =       7.2193  a.u.
     unit-cell volume          =    1170.3381 (a.u.)^3
     number of atoms/cell      =           13
     number of atomic types    =            6
     number of electrons       =       130.00
     number of Kohn-Sham states=           78
     kinetic-energy cutoff     =      90.0000  Ry
     charge density cutoff     =     720.0000  Ry
     scf convergence threshold =      1.0E-08
     mixing beta               =       0.1000
     number of iterations used =            8  plain     mixing
     energy convergence thresh.=      1.0E-04
     force convergence thresh. =      1.0E-03
     press convergence thresh. =      5.0E-01
     Exchange-correlation= SLA  PW   PBE  PBE
                           (   1   4   3   4   0   0   0)
     nstep                     =           50

     Hubbard projectors: ortho-atomic
     Hubbard parameters of DFT+U (Dudarev formulation) in eV:
     U(Cu1-3d) =  5.0000
     U(Cu2-3d) =  5.0000

     Internal variables: lda_plus_u = T, lda_plus_u_kind = 0

     celldm(1)=   7.219321  celldm(2)=   1.017061  celldm(3)=   3.058265
     celldm(4)=   0.000000  celldm(5)=   0.000000  celldm(6)=   0.000000

     crystal axes: (cart. coord. in units of alat)
               a(1) = (   1.000000   0.000000   0.000000 )  
               a(2) = (   0.000000   1.017061   0.000000 )  
               a(3) = (   0.000000   0.000000   3.058265 )  

     reciprocal axes: (cart. coord. in units 2 pi/alat)
               b(1) = (  1.000000  0.000000  0.000000 )  
               b(2) = (  0.000000  0.983225  0.000000 )  
               b(3) = (  0.000000  0.000000  0.326983 )  


     PseudoPot. # 1 for Y  read from file:
     ~/q-e/pseudo/all_pbe_UPF_v1.5/y_pbe_v1.4.uspp.F.UPF
     MD5 check sum: Not computed, couldn't open file
     Pseudo is Ultrasoft + core correction, Zval = 11.0
     Generated by new atomic code, or converted to UPF format
     Using radial grid of  885 points,  6 beta functions with: 
                l(1) =   0
                l(2) =   0
                l(3) =   1
                l(4) =   1
                l(5) =   2
                l(6) =   2
     Q(r) pseudized with  8 coefficients,  rinner =    1.200   1.200   1.200
                                                       1.200   1.200

     PseudoPot. # 2 for Ba read from file:
     ~/q-e/pseudo/all_pbe_UPF_v1.5/ba_pbe_v1.uspp.F.UPF
     MD5 check sum: Not computed, couldn't open file
     Pseudo is Ultrasoft + core correction, Zval = 10.0
     Generated by new atomic code, or converted to UPF format
     Using radial grid of  907 points,  7 beta functions with: 
                l(1) =   0
                l(2) =   0
                l(3) =   1
                l(4) =   1
                l(5) =   2
                l(6) =   2
                l(7) =   3
     Q(r) pseudized with  6 coefficients,  rinner =    1.700   1.700   1.700
                                                       1.700   1.700   1.700
                                                       1.700

     PseudoPot. # 3 for Cu read from file:
     ~/q-e/pseudo/all_pbe_UPF_v1.5/cu_pbe_v1.2.uspp.F.UPF
     MD5 check sum: Not computed, couldn't open file
     Pseudo is Ultrasoft + core correction, Zval = 19.0
     Generated by new atomic code, or converted to UPF format
     Using radial grid of  867 points,  6 beta functions with: 
                l(1) =   0
                l(2) =   0
                l(3) =   1
                l(4) =   1
                l(5) =   2
                l(6) =   2
     Q(r) pseudized with  8 coefficients,  rinner =    1.150   1.150   1.150
                                                       1.150   1.150

     PseudoPot. # 4 for Cu read from file:
     ~/q-e/pseudo/all_pbe_UPF_v1.5/cu_pbe_v1.2.uspp.F.UPF
     MD5 check sum: Not computed, couldn't open file
     Pseudo is Ultrasoft + core correction, Zval = 19.0
     Generated by new atomic code, or converted to UPF format
     Using radial grid of  867 points,  6 beta functions with: 
                l(1) =   0
                l(2) =   0
                l(3) =   1
                l(4) =   1
                l(5) =   2
                l(6) =   2
     Q(r) pseudized with  8 coefficients,  rinner =    1.150   1.150   1.150
                                                       1.150   1.150

     PseudoPot. # 5 for Cu read from file:
     ~/q-e/pseudo/all_pbe_UPF_v1.5/cu_pbe_v1.2.uspp.F.UPF
     MD5 check sum: Not computed, couldn't open file
     Pseudo is Ultrasoft + core correction, Zval = 19.0
     Generated by new atomic code, or converted to UPF format
     Using radial grid of  867 points,  6 beta functions with: 
                l(1) =   0
                l(2) =   0
                l(3) =   1
                l(4) =   1
                l(5) =   2
                l(6) =   2
     Q(r) pseudized with  8 coefficients,  rinner =    1.150   1.150   1.150
                                                       1.150   1.150

     PseudoPot. # 6 for O  read from file:
     ~/q-e/pseudo/all_pbe_UPF_v1.5/o_pbe_v1.2.uspp.F.UPF
     MD5 check sum: Not computed, couldn't open file
     Pseudo is Ultrasoft + core correction, Zval =  6.0
     Generated by new atomic code, or converted to UPF format
     Using radial grid of  737 points,  5 beta functions with: 
                l(1) =   0
                l(2) =   0
                l(3) =   1
                l(4) =   1
                l(5) =   2
     Q(r) pseudized with  8 coefficients,  rinner =    0.900   0.900   0.900
                                                       0.900   0.900

     atomic species   valence    mass     pseudopotential
     Y                11.00    88.90584     Y ( 1.00)
     Ba               10.00   137.32700     Ba( 1.00)
     Cu               19.00    63.54600     Cu( 1.00)
     Cu1              19.00    63.54600     Cu( 1.00)
     Cu2              19.00    63.54600     Cu( 1.00)
     O                 6.00    15.99900     O ( 1.00)

     Starting magnetic structure 
     atomic species   magnetization
     Y               0.000
     Ba              0.000
     Cu              0.000
     Cu1             0.100
     Cu2            -0.100
     O               0.000

      4 Sym. Ops. (no inversion) found


                                    s                        frac. trans.

      isym =  1     identity                                     

 cryst.   s( 1) = (     1          0          0      )
                  (     0          1          0      )
                  (     0          0          1      )

 cart.    s( 1) = (  1.0000000  0.0000000  0.0000000 )
                  (  0.0000000  1.0000000  0.0000000 )
                  (  0.0000000  0.0000000  1.0000000 )


      isym =  2     180 deg rotation - cart. axis [0,0,1]        

 cryst.   s( 2) = (    -1          0          0      )
                  (     0         -1          0      )
                  (     0          0          1      )

 cart.    s( 2) = ( -1.0000000  0.0000000  0.0000000 )
                  (  0.0000000 -1.0000000  0.0000000 )
                  (  0.0000000  0.0000000  1.0000000 )


      isym =  3     inv. 180 deg rotation - cart. axis [0,1,0]   

 cryst.   s( 3) = (     1          0          0      )
                  (     0         -1          0      )
                  (     0          0          1      )

 cart.    s( 3) = (  1.0000000  0.0000000  0.0000000 )
                  (  0.0000000 -1.0000000  0.0000000 )
                  (  0.0000000  0.0000000  1.0000000 )


      isym =  4     inv. 180 deg rotation - cart. axis [1,0,0]   

 cryst.   s( 4) = (    -1          0          0      )
                  (     0          1          0      )
                  (     0          0          1      )

 cart.    s( 4) = ( -1.0000000  0.0000000  0.0000000 )
                  (  0.0000000  1.0000000  0.0000000 )
                  (  0.0000000  0.0000000  1.0000000 )


     point group C_2v (mm2) 
     there are  4 classes
     the character table:

       E     C2    s_v   s_v' 
A_1    1.00  1.00  1.00  1.00
A_2    1.00  1.00 -1.00 -1.00
B_1    1.00 -1.00  1.00 -1.00
B_2    1.00 -1.00 -1.00  1.00

     the symmetry operations in each class and the name of the first element:

     E        1
          identity                                               
     C2       2
          180 deg rotation - cart. axis [0,0,1]                  
     s_v      4
          inv. 180 deg rotation - cart. axis [1,0,0]             
     s_v'     3
          inv. 180 deg rotation - cart. axis [0,1,0]             

   Cartesian axes

     site n.     atom                  positions (alat units)
         1        Y      tau(   1) = (   0.5000000   0.5085307   1.5291325  )
         2        Ba     tau(   2) = (   0.5000000   0.5085307   0.5625067  )
         3        Ba     tau(   3) = (   0.5000000   0.5085307   2.4957584  )
         4        Cu     tau(   4) = (   0.0000000   0.0000000   0.0000000  )
         5        Cu1    tau(   5) = (   0.0000000   0.0000000   1.0857147  )
         6        Cu2    tau(   6) = (   0.0000000   0.0000000   1.9725504  )
         7        O      tau(   7) = (   0.5000000   0.0000000   1.1566053  )
         8        O      tau(   8) = (   0.5000000   0.0000000   1.9016598  )
         9        O      tau(   9) = (   0.0000000   0.5085307   1.1527518  )
        10        O      tau(  10) = (   0.0000000   0.5085307   1.9055132  )
        11        O      tau(  11) = (   0.0000000   0.5085307   0.0000000  )
        12        O      tau(  12) = (   0.0000000   0.0000000   0.4844292  )
        13        O      tau(  13) = (   0.0000000   0.0000000   2.5738359  )

   Crystallographic axes

     site n.     atom                  positions (cryst. coord.)
         1        Y      tau(   1) = (  0.5000000  0.5000000  0.5000000  )
         2        Ba     tau(   2) = (  0.5000000  0.5000000  0.1839300  )
         3        Ba     tau(   3) = (  0.5000000  0.5000000  0.8160700  )
         4        Cu     tau(   4) = (  0.0000000  0.0000000  0.0000000  )
         5        Cu1    tau(   5) = (  0.0000000  0.0000000  0.3550100  )
         6        Cu2    tau(   6) = (  0.0000000  0.0000000  0.6449900  )
         7        O      tau(   7) = (  0.5000000  0.0000000  0.3781900  )
         8        O      tau(   8) = (  0.5000000  0.0000000  0.6218100  )
         9        O      tau(   9) = (  0.0000000  0.5000000  0.3769300  )
        10        O      tau(  10) = (  0.0000000  0.5000000  0.6230700  )
        11        O      tau(  11) = (  0.0000000  0.5000000  0.0000000  )
        12        O      tau(  12) = (  0.0000000  0.0000000  0.1584000  )
        13        O      tau(  13) = (  0.0000000  0.0000000  0.8416000  )

     number of k points=     8  Methfessel-Paxton smearing, width (Ry)=  0.0200
                       cart. coord. in units 2pi/alat
        k(    1) = (   0.0000000   0.0000000   0.0000000), wk =   0.1250000
        k(    2) = (   0.0000000   0.0000000  -0.1634914), wk =   0.1250000
        k(    3) = (   0.0000000  -0.4916124   0.0000000), wk =   0.1250000
        k(    4) = (   0.0000000  -0.4916124  -0.1634914), wk =   0.1250000
        k(    5) = (  -0.5000000   0.0000000   0.0000000), wk =   0.1250000
        k(    6) = (  -0.5000000   0.0000000  -0.1634914), wk =   0.1250000
        k(    7) = (  -0.5000000  -0.4916124   0.0000000), wk =   0.1250000
        k(    8) = (  -0.5000000  -0.4916124  -0.1634914), wk =   0.1250000

                       cryst. coord.
        k(    1) = (   0.0000000   0.0000000   0.0000000), wk =   0.1250000
        k(    2) = (   0.0000000   0.0000000  -0.5000000), wk =   0.1250000
        k(    3) = (   0.0000000  -0.5000000   0.0000000), wk =   0.1250000
        k(    4) = (   0.0000000  -0.5000000  -0.5000000), wk =   0.1250000
        k(    5) = (  -0.5000000   0.0000000   0.0000000), wk =   0.1250000
        k(    6) = (  -0.5000000   0.0000000  -0.5000000), wk =   0.1250000
        k(    7) = (  -0.5000000  -0.5000000   0.0000000), wk =   0.1250000
        k(    8) = (  -0.5000000  -0.5000000  -0.5000000), wk =   0.1250000

     Dense  grid:   381679 G-vectors     FFT dimensions: (  64,  64, 192)

     Smooth grid:   134875 G-vectors     FFT dimensions: (  45,  45, 135)

     Dynamical RAM for                 wfc:       5.02 MB

     Dynamical RAM for     wfc (w. buffer):      85.34 MB

     Dynamical RAM for             U proj.:       0.64 MB

     Dynamical RAM for  U proj. (w. buff.):      10.94 MB

     Dynamical RAM for           str. fact:       8.74 MB

     Dynamical RAM for           local pot:       0.00 MB

     Dynamical RAM for          nlocal pot:      13.71 MB

     Dynamical RAM for                qrad:      48.22 MB

     Dynamical RAM for          rho,v,vnew:      17.74 MB

     Dynamical RAM for               rhoin:       5.91 MB

     Dynamical RAM for            rho*nmix:      46.59 MB

     Dynamical RAM for           G-vectors:       5.72 MB

     Dynamical RAM for          h,s,v(r/c):       1.11 MB

     Dynamical RAM for          <psi|beta>:       0.25 MB

     Dynamical RAM for                 psi:      10.04 MB

     Dynamical RAM for                hpsi:      10.04 MB

     Dynamical RAM for                spsi:      10.04 MB

     Dynamical RAM for      wfcinit/wfcrot:      13.90 MB

     Dynamical RAM for           addusdens:     524.17 MB

     Dynamical RAM for          addusforce:     541.75 MB

     Dynamical RAM for         addusstress:     554.02 MB

     Estimated static dynamical RAM per process >     215.50 MB

     Estimated max dynamical RAM per process >     816.12 MB

     Estimated total dynamical RAM >       3.19 GB
     Generating pointlists ...
     new r_m :   0.2582 (alat units)  1.8637 (a.u.) for type    1
     new r_m :   0.2959 (alat units)  2.1365 (a.u.) for type    2
     new r_m :   0.1998 (alat units)  1.4426 (a.u.) for type    3
     new r_m :   0.2083 (alat units)  1.5039 (a.u.) for type    4
     new r_m :   0.2083 (alat units)  1.5039 (a.u.) for type    5
     new r_m :   0.1998 (alat units)  1.4426 (a.u.) for type    6

     Initial potential from superposition of free atoms

     starting charge     126.9655, renormalised to     130.0000

     negative rho (up, down):  9.664E-02 9.664E-02

     HUBBARD ENERGY =    0.4410  (Ry)

     STARTING HUBBARD OCCUPATIONS:

     =================== HUBBARD OCCUPATIONS ===================
     ------------------------ ATOM    5 ------------------------
     Tr[ns(  5)] (up, down, total) =   5.00000  3.00000  8.00000
     Atomic magnetic moment for atom   5 =   2.00000
     SPIN  1
     eigenvalues:
       1.000  1.000  1.000  1.000  1.000
     eigenvectors (columns):
       1.000  0.000  0.000  0.000  0.000
       0.000  1.000  0.000  0.000  0.000
       0.000  0.000  1.000  0.000  0.000
       0.000  0.000  0.000  1.000  0.000
       0.000  0.000  0.000  0.000  1.000
     occupation matrix ns (before diag.):
       1.000  0.000  0.000  0.000  0.000
       0.000  1.000  0.000  0.000  0.000
       0.000  0.000  1.000  0.000  0.000
       0.000  0.000  0.000  1.000  0.000
       0.000  0.000  0.000  0.000  1.000
     SPIN  2
     eigenvalues:
       0.600  0.600  0.600  0.600  0.600
     eigenvectors (columns):
       1.000  0.000  0.000  0.000  0.000
       0.000  1.000  0.000  0.000  0.000
       0.000  0.000  1.000  0.000  0.000
       0.000  0.000  0.000  1.000  0.000
       0.000  0.000  0.000  0.000  1.000
     occupation matrix ns (before diag.):
       0.600  0.000  0.000  0.000  0.000
       0.000  0.600  0.000  0.000  0.000
       0.000  0.000  0.600  0.000  0.000
       0.000  0.000  0.000  0.600  0.000
       0.000  0.000  0.000  0.000  0.600
     ------------------------ ATOM    6 ------------------------
     Tr[ns(  6)] (up, down, total) =   3.00000  5.00000  8.00000
     Atomic magnetic moment for atom   6 =  -2.00000
     SPIN  1
     eigenvalues:
       0.600  0.600  0.600  0.600  0.600
     eigenvectors (columns):
       1.000  0.000  0.000  0.000  0.000
       0.000  1.000  0.000  0.000  0.000
       0.000  0.000  1.000  0.000  0.000
       0.000  0.000  0.000  1.000  0.000
       0.000  0.000  0.000  0.000  1.000
     occupation matrix ns (before diag.):
       0.600  0.000  0.000  0.000  0.000
       0.000  0.600  0.000  0.000  0.000
       0.000  0.000  0.600  0.000  0.000
       0.000  0.000  0.000  0.600  0.000
       0.000  0.000  0.000  0.000  0.600
     SPIN  2
     eigenvalues:
       1.000  1.000  1.000  1.000  1.000
     eigenvectors (columns):
       1.000  0.000  0.000  0.000  0.000
       0.000  1.000  0.000  0.000  0.000
       0.000  0.000  1.000  0.000  0.000
       0.000  0.000  0.000  1.000  0.000
       0.000  0.000  0.000  0.000  1.000
     occupation matrix ns (before diag.):
       1.000  0.000  0.000  0.000  0.000
       0.000  1.000  0.000  0.000  0.000
       0.000  0.000  1.000  0.000  0.000
       0.000  0.000  0.000  1.000  0.000
       0.000  0.000  0.000  0.000  1.000

     Number of occupied Hubbard levels =   16.0000

     Atomic wfc used for Hubbard projectors are orthogonalized

     Starting wfcs are  106 randomized atomic wfcs

     total cpu time spent up to now is        6.1 secs

     Self-consistent Calculation

     iteration #  1     ecut=    90.00 Ry     beta= 0.10
     Davidson diagonalization with overlap

---- Real-time Memory Report at c_bands before calling an iterative solver
           737 MiB given to the printing process from OS
             0 MiB allocation reported by mallinfo(arena+hblkhd)
          4489 MiB available memory on the node where the printing process lives
------------------
     ethr =  1.00E-02,  avg # of iterations =  2.0

     =================== HUBBARD OCCUPATIONS ===================
     ------------------------ ATOM    5 ------------------------
     Tr[ns(  5)] (up, down, total) =   4.84312  3.89073  8.73385
     Atomic magnetic moment for atom   5 =   0.95239
     SPIN  1
     eigenvalues:
       0.899  0.975  0.989  0.989  0.991
     eigenvectors (columns):
      -0.020  1.000 -0.000 -0.000  0.000
      -0.000  0.000  0.000  1.000  0.000
      -0.000  0.000  1.000 -0.000  0.000
       1.000  0.020  0.000  0.000 -0.000
       0.000 -0.000 -0.000 -0.000  1.000
     occupation matrix ns (before diag.):
       0.975 -0.000 -0.000  0.001  0.000
      -0.000  0.989 -0.000  0.000  0.000
      -0.000 -0.000  0.989  0.000  0.000
       0.001  0.000  0.000  0.899 -0.000
       0.000  0.000  0.000 -0.000  0.991
     SPIN  2
     eigenvalues:
       0.314  0.773  0.912  0.931  0.962
     eigenvectors (columns):
      -0.030 -0.000  1.000 -0.000  0.000
      -0.000 -0.000  0.000  1.000  0.000
      -0.000 -0.000  0.000  0.000 -1.000
       1.000 -0.000  0.030  0.000 -0.000
       0.000  1.000  0.000  0.000 -0.000
     occupation matrix ns (before diag.):
       0.911 -0.000 -0.000  0.018  0.000
      -0.000  0.931 -0.000  0.000  0.000
      -0.000 -0.000  0.962  0.000  0.000
       0.018  0.000  0.000  0.314 -0.000
       0.000  0.000  0.000 -0.000  0.773
     ------------------------ ATOM    6 ------------------------
     Tr[ns(  6)] (up, down, total) =   3.89066  4.84343  8.73409
     Atomic magnetic moment for atom   6 =  -0.95277
     SPIN  1
     eigenvalues:
       0.314  0.773  0.912  0.931  0.962
     eigenvectors (columns):
      -0.030 -0.000  1.000 -0.000  0.000
      -0.000 -0.000  0.000  1.000  0.000
      -0.000 -0.000  0.000  0.000 -1.000
       1.000 -0.000  0.030  0.000 -0.000
       0.000  1.000  0.000  0.000 -0.000
     occupation matrix ns (before diag.):
       0.911 -0.000 -0.000  0.018  0.000
      -0.000  0.931 -0.000  0.000  0.000
      -0.000 -0.000  0.962  0.000  0.000
       0.018  0.000  0.000  0.314 -0.000
       0.000  0.000  0.000 -0.000  0.773
     SPIN  2
     eigenvalues:
       0.899  0.975  0.989  0.989  0.991
     eigenvectors (columns):
      -0.019  1.000 -0.000 -0.000  0.000
      -0.000  0.000  0.000  1.000  0.000
      -0.000  0.000  1.000 -0.000  0.000
       1.000  0.019  0.000  0.000 -0.000
       0.000 -0.000 -0.000 -0.000  1.000
     occupation matrix ns (before diag.):
       0.975 -0.000 -0.000  0.001  0.000
      -0.000  0.989 -0.000  0.000  0.000
      -0.000 -0.000  0.989  0.000  0.000
       0.001  0.000  0.000  0.899 -0.000
       0.000  0.000  0.000 -0.000  0.991

     Number of occupied Hubbard levels =   17.4679

     negative rho (up, down):  9.559E-02 9.559E-02

     HUBBARD ENERGY =    0.2639  (Ry)

     total cpu time spent up to now is       15.1 secs

     total energy              =   -1671.28933033 Ry
     estimated scf accuracy    <       2.70067478 Ry

     total magnetization       =     0.00 Bohr mag/cell
     absolute magnetization    =     2.21 Bohr mag/cell

     iteration #  2     ecut=    90.00 Ry     beta= 0.10
     Davidson diagonalization with overlap

---- Real-time Memory Report at c_bands before calling an iterative solver
           889 MiB given to the printing process from OS
             0 MiB allocation reported by mallinfo(arena+hblkhd)
          4405 MiB available memory on the node where the printing process lives
------------------
     ethr =  2.08E-03,  avg # of iterations =  1.0

     =================== HUBBARD OCCUPATIONS ===================
     ------------------------ ATOM    5 ------------------------
     Tr[ns(  5)] (up, down, total) =   4.88915  4.25869  9.14784
     Atomic magnetic moment for atom   5 =   0.63046
     SPIN  1
     eigenvalues:
       0.942  0.978  0.989  0.989  0.991
     eigenvectors (columns):
      -0.034  0.999 -0.000 -0.000  0.000
      -0.000  0.000  0.000  1.000  0.000
      -0.000  0.000  1.000 -0.000  0.000
       0.999  0.034  0.000  0.000 -0.000
       0.000 -0.000 -0.000 -0.000  1.000
     occupation matrix ns (before diag.):
       0.978 -0.000 -0.000  0.001  0.000
      -0.000  0.989 -0.000  0.000  0.000
      -0.000 -0.000  0.989  0.000  0.000
       0.001  0.000  0.000  0.942 -0.000
       0.000  0.000  0.000 -0.000  0.991
     SPIN  2
     eigenvalues:
       0.353  0.960  0.981  0.981  0.984
     eigenvectors (columns):
      -0.028  1.000 -0.000 -0.000  0.000
      -0.000  0.000  1.000 -0.000  0.000
      -0.000  0.000  0.000  1.000  0.000
       1.000  0.028  0.000  0.000 -0.000
       0.000 -0.000 -0.000 -0.000  1.000
     occupation matrix ns (before diag.):
       0.959 -0.000 -0.000  0.017  0.000
      -0.000  0.981 -0.000  0.000  0.000
      -0.000 -0.000  0.981  0.000  0.000
       0.017  0.000  0.000  0.353 -0.000
       0.000  0.000  0.000 -0.000  0.984
     ------------------------ ATOM    6 ------------------------
     Tr[ns(  6)] (up, down, total) =   4.25645  4.88915  9.14560
     Atomic magnetic moment for atom   6 =  -0.63270
     SPIN  1
     eigenvalues:
       0.351  0.960  0.981  0.981  0.984
     eigenvectors (columns):
      -0.028  1.000 -0.000 -0.000  0.000
      -0.000  0.000  1.000 -0.000  0.000
      -0.000  0.000  0.000  1.000  0.000
       1.000  0.028  0.000 -0.000 -0.000
       0.000 -0.000 -0.000 -0.000  1.000
     occupation matrix ns (before diag.):
       0.959 -0.000 -0.000  0.017  0.000
      -0.000  0.981 -0.000  0.000  0.000
      -0.000 -0.000  0.981  0.000  0.000
       0.017  0.000  0.000  0.351 -0.000
       0.000  0.000  0.000 -0.000  0.984
     SPIN  2
     eigenvalues:
       0.942  0.978  0.989  0.989  0.991
     eigenvectors (columns):
      -0.035  0.999 -0.000 -0.000  0.000
      -0.000  0.000  0.000  1.000  0.000
      -0.000  0.000  1.000 -0.000  0.000
       0.999  0.035  0.000  0.000 -0.000
       0.000 -0.000 -0.000 -0.000  1.000
     occupation matrix ns (before diag.):
       0.977 -0.000 -0.000  0.001  0.000
      -0.000  0.989 -0.000  0.000  0.000
      -0.000 -0.000  0.989  0.000  0.000
       0.001  0.000  0.000  0.942 -0.000
       0.000  0.000  0.000 -0.000  0.991

     Number of occupied Hubbard levels =   18.2934

     negative rho (up, down):  9.485E-02 9.485E-02

     HUBBARD ENERGY =    0.2574  (Ry)

     total cpu time spent up to now is       23.7 secs

     total energy              =   -1671.30191474 Ry
     estimated scf accuracy    <       1.84685665 Ry

     total magnetization       =    -0.00 Bohr mag/cell
     absolute magnetization    =     1.52 Bohr mag/cell

     iteration #  3     ecut=    90.00 Ry     beta= 0.10
     Davidson diagonalization with overlap

---- Real-time Memory Report at c_bands before calling an iterative solver
           909 MiB given to the printing process from OS
             0 MiB allocation reported by mallinfo(arena+hblkhd)
          4397 MiB available memory on the node where the printing process lives
------------------
     ethr =  1.42E-03,  avg # of iterations =  1.0
     Minimization algorithm failed to find Fermi energy: reverting to bisection
     Possible cause: smearing is larger than the electronic band-gap.

     =================== HUBBARD OCCUPATIONS ===================
     ------------------------ ATOM    5 ------------------------
     Tr[ns(  5)] (up, down, total) =   4.86795  4.13858  9.00653
     Atomic magnetic moment for atom   5 =   0.72938
     SPIN  1
     eigenvalues:
       0.921  0.976  0.989  0.990  0.992
     eigenvectors (columns):
      -0.027  1.000 -0.000 -0.000  0.000
      -0.000  0.000  0.000  1.000  0.000
      -0.000  0.000  1.000 -0.000  0.000
       1.000  0.027  0.000  0.000 -0.000
       0.000 -0.000 -0.000 -0.000  1.000
     occupation matrix ns (before diag.):
       0.976 -0.000 -0.000  0.002  0.000
      -0.000  0.990 -0.000  0.000  0.000
      -0.000 -0.000  0.989  0.000  0.000
       0.002  0.000  0.000  0.921 -0.000
       0.000  0.000  0.000 -0.000  0.992
     SPIN  2
     eigenvalues:
       0.233  0.956  0.982  0.982  0.985
     eigenvectors (columns):
      -0.028  1.000 -0.000 -0.000  0.000
      -0.000  0.000  1.000 -0.000  0.000
      -0.000  0.000  0.000  1.000  0.000
       1.000  0.028  0.000  0.000 -0.000
       0.000 -0.000 -0.000 -0.000  1.000
     occupation matrix ns (before diag.):
       0.956 -0.000 -0.000  0.020  0.000
      -0.000  0.982 -0.000  0.000  0.000
      -0.000 -0.000  0.982  0.000  0.000
       0.020  0.000  0.000  0.233 -0.000
       0.000  0.000  0.000 -0.000  0.985
     ------------------------ ATOM    6 ------------------------
     Tr[ns(  6)] (up, down, total) =   4.13874  4.86803  9.00677
     Atomic magnetic moment for atom   6 =  -0.72929
     SPIN  1
     eigenvalues:
       0.233  0.957  0.982  0.982  0.985
     eigenvectors (columns):
      -0.028  1.000 -0.000 -0.000  0.000
      -0.000  0.000  1.000 -0.000  0.000
      -0.000  0.000  0.000  1.000  0.000
       1.000  0.028  0.000  0.000 -0.000
       0.000 -0.000 -0.000 -0.000  1.000
     occupation matrix ns (before diag.):
       0.956 -0.000 -0.000  0.020  0.000
      -0.000  0.982 -0.000  0.000  0.000
      -0.000 -0.000  0.982  0.000  0.000
       0.020  0.000  0.000  0.233 -0.000
       0.000  0.000  0.000 -0.000  0.985
     SPIN  2
     eigenvalues:
       0.921  0.976  0.989  0.990  0.992
     eigenvectors (columns):
      -0.027  1.000 -0.000 -0.000  0.000
      -0.000  0.000  0.000  1.000  0.000
      -0.000  0.000  1.000 -0.000  0.000
       1.000  0.027  0.000  0.000 -0.000
       0.000 -0.000 -0.000 -0.000  1.000
     occupation matrix ns (before diag.):
       0.976 -0.000 -0.000  0.001  0.000
      -0.000  0.990 -0.000  0.000  0.000
      -0.000 -0.000  0.989  0.000  0.000
       0.001  0.000  0.000  0.921 -0.000
       0.000  0.000  0.000 -0.000  0.992

     Number of occupied Hubbard levels =   18.0133

     negative rho (up, down):  9.270E-02 9.270E-02

     HUBBARD ENERGY =    0.2358  (Ry)

     total cpu time spent up to now is       33.1 secs

     total energy              =   -1671.21677613 Ry
     estimated scf accuracy    <       0.75251844 Ry

     total magnetization       =     0.00 Bohr mag/cell
     absolute magnetization    =     1.75 Bohr mag/cell

     iteration #  4     ecut=    90.00 Ry     beta= 0.10
     Davidson diagonalization with overlap

---- Real-time Memory Report at c_bands before calling an iterative solver
           912 MiB given to the printing process from OS
             0 MiB allocation reported by mallinfo(arena+hblkhd)
          4384 MiB available memory on the node where the printing process lives
------------------
     ethr =  5.79E-04,  avg # of iterations =  2.0

     =================== HUBBARD OCCUPATIONS ===================
     ------------------------ ATOM    5 ------------------------
     Tr[ns(  5)] (up, down, total) =   4.89250  4.43501  9.32751
     Atomic magnetic moment for atom   5 =   0.45749
     SPIN  1
     eigenvalues:
       0.938  0.980  0.991  0.991  0.993
     eigenvectors (columns):
      -0.020  1.000 -0.000 -0.000  0.000
      -0.000  0.000  0.000  1.000  0.000
      -0.000  0.000  1.000 -0.000  0.000
       1.000  0.020  0.000  0.000 -0.000
       0.000 -0.000 -0.000 -0.000  1.000
     occupation matrix ns (before diag.):
       0.980 -0.000 -0.000  0.001  0.000
      -0.000  0.991 -0.000  0.000  0.000
      -0.000 -0.000  0.991  0.000  0.000
       0.001  0.000  0.000  0.938 -0.000
       0.000  0.000  0.000 -0.000  0.993
     SPIN  2
     eigenvalues:
       0.509  0.968  0.985  0.985  0.987
     eigenvectors (columns):
      -0.039  0.999 -0.000 -0.000  0.000
      -0.000  0.000  0.000  1.000  0.000
      -0.000  0.000  1.000 -0.000  0.000
       0.999  0.039  0.000  0.000 -0.000
       0.000 -0.000 -0.000 -0.000  1.000
     occupation matrix ns (before diag.):
       0.968 -0.000 -0.000  0.018  0.000
      -0.000  0.985 -0.000  0.000  0.000
      -0.000 -0.000  0.985  0.000  0.000
       0.018  0.000  0.000  0.509 -0.000
       0.000  0.000  0.000 -0.000  0.987
     ------------------------ ATOM    6 ------------------------
     Tr[ns(  6)] (up, down, total) =   4.43548  4.89254  9.32802
     Atomic magnetic moment for atom   6 =  -0.45706
     SPIN  1
     eigenvalues:
       0.509  0.969  0.985  0.985  0.987
     eigenvectors (columns):
      -0.039  0.999 -0.000 -0.000  0.000
      -0.000  0.000  0.000  1.000  0.000
      -0.000  0.000  1.000 -0.000  0.000
       0.999  0.039 -0.000  0.000 -0.000
       0.000 -0.000 -0.000 -0.000  1.000
     occupation matrix ns (before diag.):
       0.968 -0.000 -0.000  0.018  0.000
      -0.000  0.985 -0.000  0.000  0.000
      -0.000 -0.000  0.985  0.000  0.000
       0.018  0.000  0.000  0.510 -0.000
       0.000  0.000  0.000 -0.000  0.987
     SPIN  2
     eigenvalues:
       0.938  0.980  0.991  0.991  0.993
     eigenvectors (columns):
      -0.020  1.000 -0.000 -0.000  0.000
      -0.000  0.000  0.000  1.000  0.000
      -0.000  0.000  1.000 -0.000  0.000
       1.000  0.020  0.000  0.000 -0.000
       0.000 -0.000 -0.000 -0.000  1.000
     occupation matrix ns (before diag.):
       0.980 -0.000 -0.000  0.001  0.000
      -0.000  0.991 -0.000  0.000  0.000
      -0.000 -0.000  0.991  0.000  0.000
       0.001  0.000  0.000  0.938 -0.000
       0.000  0.000  0.000 -0.000  0.993

     Number of occupied Hubbard levels =   18.6555

     negative rho (up, down):  9.270E-02 9.270E-02

     HUBBARD ENERGY =    0.2365  (Ry)

     total cpu time spent up to now is       43.6 secs

     total energy              =   -1671.29343643 Ry
     estimated scf accuracy    <       0.56664135 Ry

     total magnetization       =     0.00 Bohr mag/cell
     absolute magnetization    =     1.19 Bohr mag/cell

     iteration #  5     ecut=    90.00 Ry     beta= 0.10
     Davidson diagonalization with overlap

---- Real-time Memory Report at c_bands before calling an iterative solver
           914 MiB given to the printing process from OS
             0 MiB allocation reported by mallinfo(arena+hblkhd)
          4365 MiB available memory on the node where the printing process lives
------------------
     ethr =  4.36E-04,  avg # of iterations =  1.0

     =================== HUBBARD OCCUPATIONS ===================
     ------------------------ ATOM    5 ------------------------
     Tr[ns(  5)] (up, down, total) =   4.88714  4.27689  9.16403
     Atomic magnetic moment for atom   5 =   0.61025
     SPIN  1
     eigenvalues:
       0.935  0.979  0.990  0.991  0.993
     eigenvectors (columns):
      -0.018  1.000 -0.000 -0.000  0.000
      -0.000  0.000  0.000  1.000  0.000
      -0.000  0.000  1.000 -0.000  0.000
       1.000  0.018  0.000  0.000 -0.000
       0.000 -0.000 -0.000 -0.000  1.000
     occupation matrix ns (before diag.):
       0.979 -0.000 -0.000  0.001  0.000
      -0.000  0.991 -0.000  0.000  0.000
      -0.000 -0.000  0.990  0.000  0.000
       0.001  0.000  0.000  0.935 -0.000
       0.000  0.000  0.000 -0.000  0.993
     SPIN  2
     eigenvalues:
       0.352  0.967  0.985  0.985  0.987
     eigenvectors (columns):
      -0.036  0.999 -0.000 -0.000  0.000
      -0.000  0.000  0.000  1.000  0.000
      -0.000  0.000  1.000 -0.000  0.000
       0.999  0.036 -0.000  0.000 -0.000
       0.000 -0.000 -0.000 -0.000  1.000
     occupation matrix ns (before diag.):
       0.966 -0.000 -0.000  0.022  0.000
      -0.000  0.985 -0.000  0.000  0.000
      -0.000 -0.000  0.985  0.000  0.000
       0.022  0.000  0.000  0.353 -0.000
       0.000  0.000  0.000 -0.000  0.987
     ------------------------ ATOM    6 ------------------------
     Tr[ns(  6)] (up, down, total) =   4.27796  4.88721  9.16517
     Atomic magnetic moment for atom   6 =  -0.60925
     SPIN  1
     eigenvalues:
       0.353  0.967  0.985  0.985  0.987
     eigenvectors (columns):
      -0.036  0.999 -0.000 -0.000  0.000
      -0.000  0.000  0.000  1.000  0.000
      -0.000  0.000  1.000 -0.000  0.000
       0.999  0.036  0.000  0.000 -0.000
       0.000 -0.000 -0.000 -0.000  1.000
     occupation matrix ns (before diag.):
       0.966 -0.000 -0.000  0.022  0.000
      -0.000  0.985 -0.000  0.000  0.000
      -0.000 -0.000  0.985  0.000  0.000
       0.022  0.000  0.000  0.354 -0.000
       0.000  0.000  0.000 -0.000  0.987
     SPIN  2
     eigenvalues:
       0.935  0.979  0.990  0.991  0.993
     eigenvectors (columns):
      -0.018  1.000 -0.000 -0.000  0.000
      -0.000  0.000  0.000  1.000  0.000
      -0.000  0.000  1.000 -0.000  0.000
       1.000  0.018  0.000  0.000 -0.000
       0.000 -0.000 -0.000 -0.000  1.000
     occupation matrix ns (before diag.):
       0.979 -0.000 -0.000  0.001  0.000
      -0.000  0.991 -0.000  0.000  0.000
      -0.000 -0.000  0.990  0.000  0.000
       0.001  0.000  0.000  0.935 -0.000
       0.000  0.000  0.000 -0.000  0.993

     Number of occupied Hubbard levels =   18.3292

     negative rho (up, down):  8.998E-02 8.999E-02

     HUBBARD ENERGY =    0.2052  (Ry)

     total cpu time spent up to now is       53.2 secs

     total energy              =   -1671.24868615 Ry
     estimated scf accuracy    <       0.29064015 Ry

     total magnetization       =     0.00 Bohr mag/cell
     absolute magnetization    =     1.51 Bohr mag/cell

     iteration #  6     ecut=    90.00 Ry     beta= 0.10
     Davidson diagonalization with overlap

---- Real-time Memory Report at c_bands before calling an iterative solver
           916 MiB given to the printing process from OS
             0 MiB allocation reported by mallinfo(arena+hblkhd)
          4355 MiB available memory on the node where the printing process lives
------------------
     ethr =  2.24E-04,  avg # of iterations =  4.9

     =================== HUBBARD OCCUPATIONS ===================
     ------------------------ ATOM    5 ------------------------
     Tr[ns(  5)] (up, down, total) =   4.88071  4.71076  9.59147
     Atomic magnetic moment for atom   5 =   0.16996
     SPIN  1
     eigenvalues:
       0.933  0.976  0.990  0.990  0.992
     eigenvectors (columns):
      -0.017  1.000 -0.000 -0.000  0.000
      -0.000  0.000  0.000  1.000  0.000
      -0.000  0.000  1.000 -0.000  0.000
       1.000  0.017  0.000  0.000 -0.000
       0.000 -0.000 -0.000 -0.000  1.000
     occupation matrix ns (before diag.):
       0.976 -0.000 -0.000  0.001  0.000
      -0.000  0.990 -0.000  0.000  0.000
      -0.000 -0.000  0.990  0.000  0.000
       0.001  0.000  0.000  0.933 -0.000
       0.000  0.000  0.000 -0.000  0.992
     SPIN  2
     eigenvalues:
       0.787  0.966  0.985  0.985  0.988
     eigenvectors (columns):
      -0.042  0.999 -0.000 -0.000  0.000
      -0.000  0.000  0.000  1.000  0.000
      -0.000  0.000  1.000 -0.000  0.000
       0.999  0.042  0.000  0.000 -0.000
       0.000 -0.000 -0.000 -0.000  1.000
     occupation matrix ns (before diag.):
       0.965 -0.000 -0.000  0.007  0.000
      -0.000  0.985 -0.000  0.000  0.000
      -0.000 -0.000  0.985  0.000  0.000
       0.007  0.000  0.000  0.787 -0.000
       0.000  0.000  0.000 -0.000  0.988
     ------------------------ ATOM    6 ------------------------
     Tr[ns(  6)] (up, down, total) =   4.70460  4.88057  9.58516
     Atomic magnetic moment for atom   6 =  -0.17597
     SPIN  1
     eigenvalues:
       0.781  0.966  0.985  0.985  0.988
     eigenvectors (columns):
      -0.041  0.999 -0.000 -0.000  0.000
      -0.000  0.000  0.000  1.000  0.000
      -0.000  0.000  1.000 -0.000  0.000
       0.999  0.041  0.000  0.000 -0.000
       0.000 -0.000 -0.000 -0.000  1.000
     occupation matrix ns (before diag.):
       0.965 -0.000 -0.000  0.008  0.000
      -0.000  0.985 -0.000  0.000  0.000
      -0.000 -0.000  0.985  0.000  0.000
       0.008  0.000  0.000  0.781 -0.000
       0.000  0.000  0.000 -0.000  0.988
     SPIN  2
     eigenvalues:
       0.932  0.976  0.990  0.990  0.992
     eigenvectors (columns):
      -0.017  1.000 -0.000 -0.000  0.000
      -0.000  0.000  0.000  1.000  0.000
      -0.000  0.000  1.000 -0.000  0.000
       1.000  0.017  0.000  0.000 -0.000
       0.000 -0.000 -0.000 -0.000  1.000
     occupation matrix ns (before diag.):
       0.976 -0.000 -0.000  0.001  0.000
      -0.000  0.990 -0.000  0.000  0.000
      -0.000 -0.000  0.990  0.000  0.000
       0.001  0.000  0.000  0.932 -0.000
       0.000  0.000  0.000 -0.000  0.992

     Number of occupied Hubbard levels =   19.1766

     negative rho (up, down):  8.993E-02 8.993E-02

     HUBBARD ENERGY =    0.2050  (Ry)

     total cpu time spent up to now is       64.1 secs

     total energy              =   -1671.34840931 Ry
     estimated scf accuracy    <       3.06516360 Ry

     total magnetization       =    -0.01 Bohr mag/cell
     absolute magnetization    =     0.67 Bohr mag/cell

     iteration #  7     ecut=    90.00 Ry     beta= 0.10
     Davidson diagonalization with overlap

---- Real-time Memory Report at c_bands before calling an iterative solver
           918 MiB given to the printing process from OS
             0 MiB allocation reported by mallinfo(arena+hblkhd)
          4347 MiB available memory on the node where the printing process lives
------------------
     ethr =  2.24E-04,  avg # of iterations =  1.0

     =================== HUBBARD OCCUPATIONS ===================
     ------------------------ ATOM    5 ------------------------
     Tr[ns(  5)] (up, down, total) =   4.87915  4.56314  9.44230
     Atomic magnetic moment for atom   5 =   0.31601
     SPIN  1
     eigenvalues:
       0.933  0.975  0.989  0.990  0.992
     eigenvectors (columns):
      -0.020  1.000 -0.000 -0.000  0.000
      -0.000  0.000  0.000  1.000  0.000
      -0.000  0.000  1.000 -0.000  0.000
       1.000  0.020  0.000  0.000 -0.000
       0.000 -0.000 -0.000 -0.000  1.000
     occupation matrix ns (before diag.):
       0.975 -0.000 -0.000  0.001  0.000
      -0.000  0.990 -0.000  0.000  0.000
      -0.000 -0.000  0.989  0.000  0.000
       0.001  0.000  0.000  0.933 -0.000
       0.000  0.000  0.000 -0.000  0.992
     SPIN  2
     eigenvalues:
       0.640  0.965  0.985  0.985  0.988
     eigenvectors (columns):
      -0.037  0.999 -0.000 -0.000  0.000
      -0.000  0.000  0.000  1.000  0.000
      -0.000  0.000  1.000 -0.000  0.000
       0.999  0.037  0.000  0.000 -0.000
       0.000 -0.000 -0.000 -0.000  1.000
     occupation matrix ns (before diag.):
       0.965 -0.000 -0.000  0.012  0.000
      -0.000  0.985 -0.000  0.000  0.000
      -0.000 -0.000  0.985  0.000  0.000
       0.012  0.000  0.000  0.640 -0.000
       0.000  0.000  0.000 -0.000  0.988
     ------------------------ ATOM    6 ------------------------
     Tr[ns(  6)] (up, down, total) =   4.55646  4.87906  9.43552
     Atomic magnetic moment for atom   6 =  -0.32260
     SPIN  1
     eigenvalues:
       0.633  0.965  0.985  0.985  0.988
     eigenvectors (columns):
      -0.037  0.999 -0.000 -0.000  0.000
      -0.000  0.000  0.000  1.000  0.000
      -0.000  0.000  1.000 -0.000  0.000
       0.999  0.037  0.000  0.000 -0.000
       0.000 -0.000 -0.000 -0.000  1.000
     occupation matrix ns (before diag.):
       0.964 -0.000 -0.000  0.012  0.000
      -0.000  0.985 -0.000  0.000  0.000
      -0.000 -0.000  0.985  0.000  0.000
       0.012  0.000  0.000  0.634 -0.000
       0.000  0.000  0.000 -0.000  0.988
     SPIN  2
     eigenvalues:
       0.933  0.975  0.989  0.990  0.992
     eigenvectors (columns):
      -0.020  1.000 -0.000 -0.000  0.000
      -0.000  0.000  0.000  1.000  0.000
      -0.000  0.000  1.000 -0.000  0.000
       1.000  0.020  0.000  0.000 -0.000
       0.000 -0.000 -0.000 -0.000  1.000
     occupation matrix ns (before diag.):
       0.975 -0.000 -0.000  0.001  0.000
      -0.000  0.990 -0.000  0.000  0.000
      -0.000 -0.000  0.989  0.000  0.000
       0.001  0.000  0.000  0.933 -0.000
       0.000  0.000  0.000 -0.000  0.992

     Number of occupied Hubbard levels =   18.8778

     negative rho (up, down):  8.934E-02 8.934E-02

     HUBBARD ENERGY =    0.1977  (Ry)

     total cpu time spent up to now is       73.7 secs

     total energy              =   -1671.34161719 Ry
     estimated scf accuracy    <       1.61066624 Ry

     total magnetization       =    -0.01 Bohr mag/cell
     absolute magnetization    =     0.89 Bohr mag/cell

     iteration #  8     ecut=    90.00 Ry     beta= 0.10
     Davidson diagonalization with overlap

---- Real-time Memory Report at c_bands before calling an iterative solver
           920 MiB given to the printing process from OS
             0 MiB allocation reported by mallinfo(arena+hblkhd)
          4337 MiB available memory on the node where the printing process lives
------------------
     ethr =  2.24E-04,  avg # of iterations =  1.8

     =================== HUBBARD OCCUPATIONS ===================
     ------------------------ ATOM    5 ------------------------
     Tr[ns(  5)] (up, down, total) =   4.88038  4.61922  9.49961
     Atomic magnetic moment for atom   5 =   0.26116
     SPIN  1
     eigenvalues:
       0.934  0.975  0.989  0.990  0.992
     eigenvectors (columns):
      -0.020  1.000 -0.000 -0.000  0.000
      -0.000  0.000  0.000  1.000  0.000
      -0.000  0.000  1.000 -0.000  0.000
       1.000  0.020  0.000  0.000 -0.000
       0.000 -0.000 -0.000 -0.000  1.000
     occupation matrix ns (before diag.):
       0.975 -0.000 -0.000  0.001  0.000
      -0.000  0.990 -0.000  0.000  0.000
      -0.000 -0.000  0.989  0.000  0.000
       0.001  0.000  0.000  0.934 -0.000
       0.000  0.000  0.000 -0.000  0.992
     SPIN  2
     eigenvalues:
       0.695  0.965  0.985  0.986  0.988
     eigenvectors (columns):
      -0.041  0.999 -0.000 -0.000  0.000
      -0.000  0.000  0.000  1.000  0.000
      -0.000  0.000  1.000 -0.000  0.000
       0.999  0.041  0.000  0.000 -0.000
       0.000 -0.000 -0.000 -0.000  1.000
     occupation matrix ns (before diag.):
       0.965 -0.000 -0.000  0.011  0.000
      -0.000  0.986 -0.000  0.000  0.000
      -0.000 -0.000  0.985  0.000  0.000
       0.011  0.000  0.000  0.695 -0.000
       0.000  0.000  0.000 -0.000  0.988
     ------------------------ ATOM    6 ------------------------
     Tr[ns(  6)] (up, down, total) =   4.62589  4.88049  9.50639
     Atomic magnetic moment for atom   6 =  -0.25460
     SPIN  1
     eigenvalues:
       0.701  0.965  0.985  0.986  0.988
     eigenvectors (columns):
      -0.042  0.999 -0.000 -0.000  0.000
      -0.000  0.000  0.000  1.000  0.000
      -0.000  0.000  1.000 -0.000  0.000
       0.999  0.042  0.000  0.000 -0.000
       0.000 -0.000 -0.000 -0.000  1.000
     occupation matrix ns (before diag.):
       0.965 -0.000 -0.000  0.011  0.000
      -0.000  0.986 -0.000  0.000  0.000
      -0.000 -0.000  0.985  0.000  0.000
       0.011  0.000  0.000  0.702 -0.000
       0.000  0.000  0.000 -0.000  0.988
     SPIN  2
     eigenvalues:
       0.934  0.975  0.989  0.990  0.992
     eigenvectors (columns):
      -0.020  1.000 -0.000 -0.000  0.000
      -0.000  0.000  0.000  1.000  0.000
      -0.000  0.000  1.000 -0.000  0.000
       1.000  0.020  0.000  0.000 -0.000
       0.000 -0.000 -0.000 -0.000  1.000
     occupation matrix ns (before diag.):
       0.975 -0.000 -0.000  0.001  0.000
      -0.000  0.990 -0.000  0.000  0.000
      -0.000 -0.000  0.989  0.000  0.000
       0.001  0.000  0.000  0.934 -0.000
       0.000  0.000  0.000 -0.000  0.992

     Number of occupied Hubbard levels =   19.0060

     negative rho (up, down):  8.778E-02 8.778E-02

     HUBBARD ENERGY =    0.1773  (Ry)

     total cpu time spent up to now is       83.6 secs

     total energy              =   -1671.33082519 Ry
     estimated scf accuracy    <       1.79212999 Ry

     total magnetization       =     0.01 Bohr mag/cell
     absolute magnetization    =     0.77 Bohr mag/cell

     iteration #  9     ecut=    90.00 Ry     beta= 0.10
     Davidson diagonalization with overlap

---- Real-time Memory Report at c_bands before calling an iterative solver
           922 MiB given to the printing process from OS
             0 MiB allocation reported by mallinfo(arena+hblkhd)
          4318 MiB available memory on the node where the printing process lives
------------------
     ethr =  2.24E-04,  avg # of iterations =  1.2

     =================== HUBBARD OCCUPATIONS ===================
     ------------------------ ATOM    5 ------------------------
     Tr[ns(  5)] (up, down, total) =   4.87362  4.64469  9.51831
     Atomic magnetic moment for atom   5 =   0.22893
     SPIN  1
     eigenvalues:
       0.931  0.973  0.989  0.989  0.992
     eigenvectors (columns):
      -0.020  1.000 -0.000 -0.000  0.000
      -0.000  0.000  0.000  1.000  0.000
      -0.000  0.000  1.000 -0.000  0.000
       1.000  0.020  0.000  0.000 -0.000
       0.000 -0.000 -0.000 -0.000  1.000
     occupation matrix ns (before diag.):
       0.973 -0.000 -0.000  0.001  0.000
      -0.000  0.989 -0.000  0.000  0.000
      -0.000 -0.000  0.989  0.000  0.000
       0.001  0.000  0.000  0.931 -0.000
       0.000  0.000  0.000 -0.000  0.992
     SPIN  2
     eigenvalues:
       0.719  0.965  0.986  0.986  0.989
     eigenvectors (columns):
      -0.048  0.999 -0.000 -0.000  0.000
      -0.000  0.000  0.000  1.000  0.000
      -0.000  0.000  1.000 -0.000  0.000
       0.999  0.048  0.000  0.000 -0.000
       0.000 -0.000 -0.000 -0.000  1.000
     occupation matrix ns (before diag.):
       0.965 -0.000 -0.000  0.012  0.000
      -0.000  0.986 -0.000  0.000  0.000
      -0.000 -0.000  0.986  0.000  0.000
       0.012  0.000  0.000  0.720 -0.000
       0.000  0.000  0.000 -0.000  0.989
     ------------------------ ATOM    6 ------------------------
     Tr[ns(  6)] (up, down, total) =   4.58329  4.87292  9.45621
     Atomic magnetic moment for atom   6 =  -0.28963
     SPIN  1
     eigenvalues:
       0.659  0.965  0.985  0.986  0.989
     eigenvectors (columns):
      -0.046  0.999 -0.000 -0.000  0.000
      -0.000  0.000  0.000  1.000  0.000
      -0.000  0.000  1.000 -0.000  0.000
       0.999  0.046  0.000  0.000 -0.000
       0.000 -0.000 -0.000 -0.000  1.000
     occupation matrix ns (before diag.):
       0.964 -0.000 -0.000  0.014  0.000
      -0.000  0.986 -0.000  0.000  0.000
      -0.000 -0.000  0.985  0.000  0.000
       0.014  0.000  0.000  0.659 -0.000
       0.000  0.000  0.000 -0.000  0.989
     SPIN  2
     eigenvalues:
       0.931  0.973  0.989  0.989  0.992
     eigenvectors (columns):
      -0.020  1.000 -0.000 -0.000  0.000
      -0.000  0.000  0.000  1.000  0.000
      -0.000  0.000  1.000 -0.000  0.000
       1.000  0.020  0.000  0.000 -0.000
       0.000 -0.000 -0.000 -0.000  1.000
     occupation matrix ns (before diag.):
       0.973 -0.000 -0.000  0.001  0.000
      -0.000  0.989 -0.000  0.000  0.000
      -0.000 -0.000  0.989  0.000  0.000
       0.001  0.000  0.000  0.931 -0.000
       0.000  0.000  0.000 -0.000  0.992

     Number of occupied Hubbard levels =   18.9745

     negative rho (up, down):  8.722E-02 8.722E-02

     HUBBARD ENERGY =    0.1701  (Ry)

     total cpu time spent up to now is       93.3 secs

     total energy              =   -1671.32393162 Ry
     estimated scf accuracy    <       1.31996088 Ry

     total magnetization       =    -0.09 Bohr mag/cell
     absolute magnetization    =     0.76 Bohr mag/cell

     iteration # 10     ecut=    90.00 Ry     beta= 0.10
     Davidson diagonalization with overlap

---- Real-time Memory Report at c_bands before calling an iterative solver
           924 MiB given to the printing process from OS
             0 MiB allocation reported by mallinfo(arena+hblkhd)
          4306 MiB available memory on the node where the printing process lives
------------------
     ethr =  2.24E-04,  avg # of iterations =  1.2

     =================== HUBBARD OCCUPATIONS ===================
     ------------------------ ATOM    5 ------------------------
     Tr[ns(  5)] (up, down, total) =   4.86887  4.49973  9.36859
     Atomic magnetic moment for atom   5 =   0.36914
     SPIN  1
     eigenvalues:
       0.929  0.971  0.988  0.989  0.992
     eigenvectors (columns):
      -0.022  1.000 -0.000 -0.000  0.000
      -0.000  0.000  0.000  1.000  0.000
      -0.000  0.000  1.000 -0.000  0.000
       1.000  0.022  0.000  0.000 -0.000
       0.000 -0.000 -0.000 -0.000  1.000
     occupation matrix ns (before diag.):
       0.971 -0.000 -0.000  0.001  0.000
      -0.000  0.989 -0.000  0.000  0.000
      -0.000 -0.000  0.988  0.000  0.000
       0.001  0.000  0.000  0.929 -0.000
       0.000  0.000  0.000 -0.000  0.992
     SPIN  2
     eigenvalues:
       0.576  0.965  0.985  0.986  0.989
     eigenvectors (columns):
      -0.045  0.999 -0.000 -0.000  0.000
      -0.000  0.000  0.000  1.000  0.000
      -0.000  0.000  1.000 -0.000  0.000
       0.999  0.045  0.000  0.000 -0.000
       0.000 -0.000 -0.000 -0.000  1.000
     occupation matrix ns (before diag.):
       0.964 -0.000 -0.000  0.017  0.000
      -0.000  0.986 -0.000  0.000  0.000
      -0.000 -0.000  0.985  0.000  0.000
       0.017  0.000  0.000  0.576 -0.000
       0.000  0.000  0.000 -0.000  0.989
     ------------------------ ATOM    6 ------------------------
     Tr[ns(  6)] (up, down, total) =   4.55340  4.87068  9.42408
     Atomic magnetic moment for atom   6 =  -0.31728
     SPIN  1
     eigenvalues:
       0.628  0.965  0.985  0.986  0.989
     eigenvectors (columns):
      -0.047  0.999 -0.000 -0.000  0.000
      -0.000  0.000  0.000  1.000  0.000
      -0.000  0.000  1.000 -0.000  0.000
       0.999  0.047  0.000  0.000 -0.000
       0.000 -0.000 -0.000 -0.000  1.000
     occupation matrix ns (before diag.):
       0.965 -0.000 -0.000  0.016  0.000
      -0.000  0.986 -0.000  0.000  0.000
      -0.000 -0.000  0.985  0.000  0.000
       0.016  0.000  0.000  0.629 -0.000
       0.000  0.000  0.000 -0.000  0.989
     SPIN  2
     eigenvalues:
       0.930  0.972  0.989  0.989  0.992
     eigenvectors (columns):
      -0.022  1.000 -0.000 -0.000  0.000
      -0.000  0.000  0.000  1.000  0.000
      -0.000  0.000  1.000 -0.000  0.000
       1.000  0.022  0.000  0.000 -0.000
       0.000 -0.000 -0.000 -0.000  1.000
     occupation matrix ns (before diag.):
       0.972 -0.000 -0.000  0.001  0.000
      -0.000  0.989 -0.000  0.000  0.000
      -0.000 -0.000  0.989  0.000  0.000
       0.001  0.000  0.000  0.930 -0.000
       0.000  0.000  0.000 -0.000  0.992

     Number of occupied Hubbard levels =   18.7927

     negative rho (up, down):  8.655E-02 8.655E-02

     HUBBARD ENERGY =    0.1615  (Ry)

     total cpu time spent up to now is      103.1 secs

     total energy              =   -1671.31412142 Ry
     estimated scf accuracy    <       0.65193187 Ry

     total magnetization       =     0.07 Bohr mag/cell
     absolute magnetization    =     0.91 Bohr mag/cell

     iteration # 11     ecut=    90.00 Ry     beta= 0.10
     Davidson diagonalization with overlap

---- Real-time Memory Report at c_bands before calling an iterative solver
           926 MiB given to the printing process from OS
             0 MiB allocation reported by mallinfo(arena+hblkhd)
          4305 MiB available memory on the node where the printing process lives
------------------
     ethr =  2.24E-04,  avg # of iterations =  1.6

     =================== HUBBARD OCCUPATIONS ===================
     ------------------------ ATOM    5 ------------------------
     Tr[ns(  5)] (up, down, total) =   4.86578  4.44664  9.31241
     Atomic magnetic moment for atom   5 =   0.41914
     SPIN  1
     eigenvalues:
       0.928  0.970  0.988  0.988  0.992
     eigenvectors (columns):
      -0.025  1.000 -0.000 -0.000  0.000
      -0.000  0.000  0.000  1.000  0.000
      -0.000  0.000  1.000 -0.000  0.000
       1.000  0.025  0.000  0.000 -0.000
       0.000 -0.000 -0.000 -0.000  1.000
     occupation matrix ns (before diag.):
       0.970 -0.000 -0.000  0.001  0.000
      -0.000  0.988 -0.000  0.000  0.000
      -0.000 -0.000  0.988  0.000  0.000
       0.001  0.000  0.000  0.928 -0.000
       0.000  0.000  0.000 -0.000  0.992
     SPIN  2
     eigenvalues:
       0.522  0.965  0.985  0.986  0.989
     eigenvectors (columns):
      -0.043  0.999 -0.000 -0.000  0.000
      -0.000  0.000  0.000  1.000  0.000
      -0.000  0.000  1.000 -0.000  0.000
       0.999  0.043  0.000  0.000 -0.000
       0.000 -0.000 -0.000 -0.000  1.000
     occupation matrix ns (before diag.):
       0.964 -0.000 -0.000  0.019  0.000
      -0.000  0.986 -0.000  0.000  0.000
      -0.000 -0.000  0.985  0.000  0.000
       0.019  0.000  0.000  0.522 -0.000
       0.000  0.000  0.000 -0.000  0.989
     ------------------------ ATOM    6 ------------------------
     Tr[ns(  6)] (up, down, total) =   4.44763  4.86648  9.31411
     Atomic magnetic moment for atom   6 =  -0.41885
     SPIN  1
     eigenvalues:
       0.522  0.965  0.985  0.986  0.989
     eigenvectors (columns):
      -0.043  0.999 -0.000 -0.000  0.000
      -0.000  0.000  0.000  1.000  0.000
      -0.000  0.000  1.000 -0.000  0.000
       0.999  0.043  0.000  0.000 -0.000
       0.000 -0.000 -0.000 -0.000  1.000
     occupation matrix ns (before diag.):
       0.964 -0.000 -0.000  0.019  0.000
      -0.000  0.986 -0.000  0.000  0.000
      -0.000 -0.000  0.985  0.000  0.000
       0.019  0.000  0.000  0.523 -0.000
       0.000  0.000  0.000 -0.000  0.989
     SPIN  2
     eigenvalues:
       0.929  0.970  0.988  0.988  0.992
     eigenvectors (columns):
      -0.025  1.000 -0.000 -0.000  0.000
      -0.000  0.000  0.000  1.000  0.000
      -0.000  0.000  1.000 -0.000  0.000
       1.000  0.025  0.000  0.000 -0.000
       0.000 -0.000 -0.000 -0.000  1.000
     occupation matrix ns (before diag.):
       0.970 -0.000 -0.000  0.001  0.000
      -0.000  0.988 -0.000  0.000  0.000
      -0.000 -0.000  0.988  0.000  0.000
       0.001  0.000  0.000  0.929 -0.000
       0.000  0.000  0.000 -0.000  0.992

     Number of occupied Hubbard levels =   18.6265

     negative rho (up, down):  8.656E-02 8.656E-02

     HUBBARD ENERGY =    0.1619  (Ry)

     total cpu time spent up to now is      112.7 secs

     total energy              =   -1671.31358336 Ry
     estimated scf accuracy    <       0.20368308 Ry

     total magnetization       =    -0.00 Bohr mag/cell
     absolute magnetization    =     1.07 Bohr mag/cell

     iteration # 12     ecut=    90.00 Ry     beta= 0.10
     Davidson diagonalization with overlap

---- Real-time Memory Report at c_bands before calling an iterative solver
           926 MiB given to the printing process from OS
             0 MiB allocation reported by mallinfo(arena+hblkhd)
          4308 MiB available memory on the node where the printing process lives
------------------
     ethr =  1.57E-04,  avg # of iterations =  1.1

     =================== HUBBARD OCCUPATIONS ===================
     ------------------------ ATOM    5 ------------------------
     Tr[ns(  5)] (up, down, total) =   4.86505  4.43924  9.30429
     Atomic magnetic moment for atom   5 =   0.42581
     SPIN  1
     eigenvalues:
       0.928  0.969  0.988  0.988  0.991
     eigenvectors (columns):
      -0.026  1.000 -0.000 -0.000  0.000
      -0.000  0.000  0.000  1.000  0.000
      -0.000  0.000  1.000 -0.000  0.000
       1.000  0.026  0.000  0.000 -0.000
       0.000 -0.000 -0.000 -0.000  1.000
     occupation matrix ns (before diag.):
       0.969 -0.000 -0.000  0.001  0.000
      -0.000  0.988 -0.000  0.000  0.000
      -0.000 -0.000  0.988  0.000  0.000
       0.001  0.000  0.000  0.928 -0.000
       0.000  0.000  0.000 -0.000  0.991
     SPIN  2
     eigenvalues:
       0.515  0.965  0.985  0.986  0.989
     eigenvectors (columns):
      -0.041  0.999 -0.000 -0.000  0.000
      -0.000  0.000  0.000  1.000  0.000
      -0.000  0.000  1.000 -0.000  0.000
       0.999  0.041  0.000  0.000 -0.000
       0.000 -0.000 -0.000 -0.000  1.000
     occupation matrix ns (before diag.):
       0.964 -0.000 -0.000  0.018  0.000
      -0.000  0.986 -0.000  0.000  0.000
      -0.000 -0.000  0.985  0.000  0.000
       0.018  0.000  0.000  0.515 -0.000
       0.000  0.000  0.000 -0.000  0.989
     ------------------------ ATOM    6 ------------------------
     Tr[ns(  6)] (up, down, total) =   4.44004  4.86546  9.30550
     Atomic magnetic moment for atom   6 =  -0.42542
     SPIN  1
     eigenvalues:
       0.515  0.965  0.985  0.986  0.989
     eigenvectors (columns):
      -0.041  0.999 -0.000 -0.000  0.000
      -0.000  0.000  0.000  1.000  0.000
      -0.000  0.000  1.000 -0.000  0.000
       0.999  0.041  0.000  0.000 -0.000
       0.000 -0.000 -0.000 -0.000  1.000
     occupation matrix ns (before diag.):
       0.964 -0.000 -0.000  0.018  0.000
      -0.000  0.986 -0.000  0.000  0.000
      -0.000 -0.000  0.985  0.000  0.000
       0.018  0.000  0.000  0.516 -0.000
       0.000  0.000  0.000 -0.000  0.989
     SPIN  2
     eigenvalues:
       0.929  0.970  0.988  0.988  0.991
     eigenvectors (columns):
      -0.025  1.000 -0.000 -0.000  0.000
      -0.000  0.000  0.000  1.000  0.000
      -0.000  0.000  1.000 -0.000  0.000
       1.000  0.025  0.000  0.000 -0.000
       0.000 -0.000 -0.000 -0.000  1.000
     occupation matrix ns (before diag.):
       0.970 -0.000 -0.000  0.001  0.000
      -0.000  0.988 -0.000  0.000  0.000
      -0.000 -0.000  0.988  0.000  0.000
       0.001  0.000  0.000  0.929 -0.000
       0.000  0.000  0.000 -0.000  0.991

     Number of occupied Hubbard levels =   18.6098

     negative rho (up, down):  8.644E-02 8.644E-02

     HUBBARD ENERGY =    0.1612  (Ry)

     total cpu time spent up to now is      122.2 secs

     total energy              =   -1671.31022594 Ry
     estimated scf accuracy    <       0.13682129 Ry

     total magnetization       =    -0.00 Bohr mag/cell
     absolute magnetization    =     1.09 Bohr mag/cell

     iteration # 13     ecut=    90.00 Ry     beta= 0.10
     Davidson diagonalization with overlap

---- Real-time Memory Report at c_bands before calling an iterative solver
           926 MiB given to the printing process from OS
             0 MiB allocation reported by mallinfo(arena+hblkhd)
          4308 MiB available memory on the node where the printing process lives
------------------
     ethr =  1.05E-04,  avg # of iterations =  1.1

     =================== HUBBARD OCCUPATIONS ===================
     ------------------------ ATOM    5 ------------------------
     Tr[ns(  5)] (up, down, total) =   4.86302  4.40638  9.26940
     Atomic magnetic moment for atom   5 =   0.45664
     SPIN  1
     eigenvalues:
       0.928  0.969  0.987  0.988  0.991
     eigenvectors (columns):
      -0.027  1.000 -0.000 -0.000  0.000
      -0.000  0.000  0.000  1.000  0.000
      -0.000  0.000  1.000 -0.000  0.000
       1.000  0.027  0.000  0.000 -0.000
       0.000 -0.000 -0.000 -0.000  1.000
     occupation matrix ns (before diag.):
       0.969 -0.000 -0.000  0.001  0.000
      -0.000  0.988 -0.000  0.000  0.000
      -0.000 -0.000  0.987  0.000  0.000
       0.001  0.000  0.000  0.928 -0.000
       0.000  0.000  0.000 -0.000  0.991
     SPIN  2
     eigenvalues:
       0.482  0.964  0.985  0.985  0.989
     eigenvectors (columns):
      -0.039  0.999 -0.000 -0.000  0.000
      -0.000  0.000  0.000  1.000  0.000
      -0.000  0.000  1.000 -0.000  0.000
       0.999  0.039  0.000  0.000 -0.000
       0.000 -0.000 -0.000 -0.000  1.000
     occupation matrix ns (before diag.):
       0.964 -0.000 -0.000  0.019  0.000
      -0.000  0.985 -0.000  0.000  0.000
      -0.000 -0.000  0.985  0.000  0.000
       0.019  0.000  0.000  0.483 -0.000
       0.000  0.000  0.000 -0.000  0.989
     ------------------------ ATOM    6 ------------------------
     Tr[ns(  6)] (up, down, total) =   4.40799  4.86336  9.27134
     Atomic magnetic moment for atom   6 =  -0.45537
     SPIN  1
     eigenvalues:
       0.484  0.964  0.985  0.985  0.989
     eigenvectors (columns):
      -0.039  0.999 -0.000 -0.000  0.000
      -0.000  0.000  0.000  1.000  0.000
      -0.000  0.000  1.000 -0.000  0.000
       0.999  0.039  0.000  0.000 -0.000
       0.000 -0.000 -0.000 -0.000  1.000
     occupation matrix ns (before diag.):
       0.964 -0.000 -0.000  0.019  0.000
      -0.000  0.985 -0.000  0.000  0.000
      -0.000 -0.000  0.985  0.000  0.000
       0.019  0.000  0.000  0.485 -0.000
       0.000  0.000  0.000 -0.000  0.989
     SPIN  2
     eigenvalues:
       0.928  0.969  0.988  0.988  0.991
     eigenvectors (columns):
      -0.026  1.000 -0.000 -0.000  0.000
      -0.000  0.000  0.000  1.000  0.000
      -0.000  0.000  1.000 -0.000  0.000
       1.000  0.026  0.000  0.000 -0.000
       0.000 -0.000 -0.000 -0.000  1.000
     occupation matrix ns (before diag.):
       0.969 -0.000 -0.000  0.001  0.000
      -0.000  0.988 -0.000  0.000  0.000
      -0.000 -0.000  0.988  0.000  0.000
       0.001  0.000  0.000  0.928 -0.000
       0.000  0.000  0.000 -0.000  0.991

     Number of occupied Hubbard levels =   18.5407

     negative rho (up, down):  8.639E-02 8.639E-02

     HUBBARD ENERGY =    0.1619  (Ry)

     total cpu time spent up to now is      132.0 secs

     total energy              =   -1671.30653339 Ry
     estimated scf accuracy    <       0.06653737 Ry

     total magnetization       =    -0.00 Bohr mag/cell
     absolute magnetization    =     1.15 Bohr mag/cell

     iteration # 14     ecut=    90.00 Ry     beta= 0.10
     Davidson diagonalization with overlap

---- Real-time Memory Report at c_bands before calling an iterative solver
           926 MiB given to the printing process from OS
             0 MiB allocation reported by mallinfo(arena+hblkhd)
          4309 MiB available memory on the node where the printing process lives
------------------
     ethr =  5.12E-05,  avg # of iterations =  1.3

     =================== HUBBARD OCCUPATIONS ===================
     ------------------------ ATOM    5 ------------------------
     Tr[ns(  5)] (up, down, total) =   4.86083  4.32564  9.18647
     Atomic magnetic moment for atom   5 =   0.53519
     SPIN  1
     eigenvalues:
       0.926  0.968  0.987  0.988  0.991
     eigenvectors (columns):
      -0.026  1.000 -0.000 -0.000  0.000
      -0.000  0.000  0.000  1.000  0.000
      -0.000  0.000  1.000 -0.000  0.000
       1.000  0.026  0.000  0.000 -0.000
       0.000 -0.000 -0.000 -0.000  1.000
     occupation matrix ns (before diag.):
       0.968 -0.000 -0.000  0.001  0.000
      -0.000  0.988 -0.000  0.000  0.000
      -0.000 -0.000  0.987  0.000  0.000
       0.001  0.000  0.000  0.926 -0.000
       0.000  0.000  0.000 -0.000  0.991
     SPIN  2
     eigenvalues:
       0.402  0.965  0.985  0.985  0.989
     eigenvectors (columns):
      -0.040  0.999 -0.000 -0.000  0.000
      -0.000  0.000  0.000  1.000  0.000
      -0.000  0.000  1.000 -0.000  0.000
       0.999  0.040 -0.000  0.000 -0.000
       0.000 -0.000 -0.000 -0.000  1.000
     occupation matrix ns (before diag.):
       0.964 -0.000 -0.000  0.023  0.000
      -0.000  0.985 -0.000  0.000  0.000
      -0.000 -0.000  0.985  0.000  0.000
       0.023  0.000  0.000  0.403 -0.000
       0.000  0.000  0.000 -0.000  0.989
     ------------------------ ATOM    6 ------------------------
     Tr[ns(  6)] (up, down, total) =   4.32484  4.86108  9.18591
     Atomic magnetic moment for atom   6 =  -0.53624
     SPIN  1
     eigenvalues:
       0.401  0.965  0.985  0.985  0.989
     eigenvectors (columns):
      -0.040  0.999 -0.000 -0.000  0.000
      -0.000  0.000  0.000  1.000  0.000
      -0.000  0.000  1.000 -0.000  0.000
       0.999  0.040  0.000  0.000 -0.000
       0.000 -0.000 -0.000 -0.000  1.000
     occupation matrix ns (before diag.):
       0.964 -0.000 -0.000  0.023  0.000
      -0.000  0.985 -0.000  0.000  0.000
      -0.000 -0.000  0.985  0.000  0.000
       0.023  0.000  0.000  0.402 -0.000
       0.000  0.000  0.000 -0.000  0.989
     SPIN  2
     eigenvalues:
       0.927  0.968  0.987  0.988  0.991
     eigenvectors (columns):
      -0.025  1.000 -0.000 -0.000  0.000
      -0.000  0.000  0.000  1.000  0.000
      -0.000  0.000  1.000 -0.000  0.000
       1.000  0.025  0.000  0.000 -0.000
       0.000 -0.000 -0.000 -0.000  1.000
     occupation matrix ns (before diag.):
       0.968 -0.000 -0.000  0.001  0.000
      -0.000  0.988 -0.000  0.000  0.000
      -0.000 -0.000  0.987  0.000  0.000
       0.001  0.000  0.000  0.927 -0.000
       0.000  0.000  0.000 -0.000  0.991

     Number of occupied Hubbard levels =   18.3724

     negative rho (up, down):  8.640E-02 8.640E-02

     HUBBARD ENERGY =    0.1633  (Ry)

     total cpu time spent up to now is      141.5 secs

     total energy              =   -1671.30954826 Ry
     estimated scf accuracy    <       0.00420332 Ry

     total magnetization       =    -0.01 Bohr mag/cell
     absolute magnetization    =     1.34 Bohr mag/cell

     iteration # 15     ecut=    90.00 Ry     beta= 0.10
     Davidson diagonalization with overlap

---- Real-time Memory Report at c_bands before calling an iterative solver
           926 MiB given to the printing process from OS
             0 MiB allocation reported by mallinfo(arena+hblkhd)
          4313 MiB available memory on the node where the printing process lives
------------------
     ethr =  3.23E-06,  avg # of iterations =  7.5

     =================== HUBBARD OCCUPATIONS ===================
     ------------------------ ATOM    5 ------------------------
     Tr[ns(  5)] (up, down, total) =   4.86021  4.31518  9.17539
     Atomic magnetic moment for atom   5 =   0.54503
     SPIN  1
     eigenvalues:
       0.926  0.968  0.987  0.988  0.991
     eigenvectors (columns):
      -0.025  1.000 -0.000 -0.000  0.000
      -0.000  0.000  0.000  1.000  0.000
      -0.000  0.000  1.000 -0.000  0.000
       1.000  0.025  0.000  0.000 -0.000
       0.000 -0.000 -0.000 -0.000  1.000
     occupation matrix ns (before diag.):
       0.968 -0.000 -0.000  0.001  0.000
      -0.000  0.988 -0.000  0.000  0.000
      -0.000 -0.000  0.987  0.000  0.000
       0.001  0.000  0.000  0.926 -0.000
       0.000  0.000  0.000 -0.000  0.991
     SPIN  2
     eigenvalues:
       0.391  0.965  0.985  0.985  0.989
     eigenvectors (columns):
      -0.040  0.999 -0.000 -0.000  0.000
      -0.000  0.000  0.000  1.000  0.000
      -0.000  0.000  1.000 -0.000  0.000
       0.999  0.040  0.000  0.000 -0.000
       0.000 -0.000 -0.000 -0.000  1.000
     occupation matrix ns (before diag.):
       0.964 -0.000 -0.000  0.023  0.000
      -0.000  0.985 -0.000  0.000  0.000
      -0.000 -0.000  0.985  0.000  0.000
       0.023  0.000  0.000  0.392 -0.000
       0.000  0.000  0.000 -0.000  0.989
     ------------------------ ATOM    6 ------------------------
     Tr[ns(  6)] (up, down, total) =   4.31287  4.86041  9.17328
     Atomic magnetic moment for atom   6 =  -0.54754
     SPIN  1
     eigenvalues:
       0.389  0.965  0.985  0.985  0.989
     eigenvectors (columns):
      -0.040  0.999 -0.000 -0.000  0.000
      -0.000  0.000  0.000  1.000  0.000
      -0.000  0.000  1.000 -0.000  0.000
       0.999  0.040  0.000  0.000 -0.000
       0.000 -0.000 -0.000 -0.000  1.000
     occupation matrix ns (before diag.):
       0.964 -0.000 -0.000  0.023  0.000
      -0.000  0.985 -0.000  0.000  0.000
      -0.000 -0.000  0.985  0.000  0.000
       0.023  0.000  0.000  0.390 -0.000
       0.000  0.000  0.000 -0.000  0.989
     SPIN  2
     eigenvalues:
       0.926  0.968  0.987  0.988  0.991
     eigenvectors (columns):
      -0.025  1.000 -0.000 -0.000  0.000
      -0.000  0.000  0.000  1.000  0.000
      -0.000  0.000  1.000 -0.000  0.000
       1.000  0.025  0.000  0.000 -0.000
       0.000 -0.000 -0.000 -0.000  1.000
     occupation matrix ns (before diag.):
       0.968 -0.000 -0.000  0.001  0.000
      -0.000  0.988 -0.000  0.000  0.000
      -0.000 -0.000  0.987  0.000  0.000
       0.001  0.000  0.000  0.926 -0.000
       0.000  0.000  0.000 -0.000  0.991

     Number of occupied Hubbard levels =   18.3487

     negative rho (up, down):  8.633E-02 8.633E-02

     HUBBARD ENERGY =    0.1641  (Ry)

     total cpu time spent up to now is      153.0 secs

     total energy              =   -1671.30894438 Ry
     estimated scf accuracy    <       0.01154597 Ry

     total magnetization       =    -0.01 Bohr mag/cell
     absolute magnetization    =     1.36 Bohr mag/cell

     iteration # 16     ecut=    90.00 Ry     beta= 0.10
     Davidson diagonalization with overlap

---- Real-time Memory Report at c_bands before calling an iterative solver
           926 MiB given to the printing process from OS
             0 MiB allocation reported by mallinfo(arena+hblkhd)
          4312 MiB available memory on the node where the printing process lives
------------------
     ethr =  3.23E-06,  avg # of iterations =  1.2

     =================== HUBBARD OCCUPATIONS ===================
     ------------------------ ATOM    5 ------------------------
     Tr[ns(  5)] (up, down, total) =   4.85869  4.35584  9.21453
     Atomic magnetic moment for atom   5 =   0.50284
     SPIN  1
     eigenvalues:
       0.925  0.968  0.987  0.987  0.991
     eigenvectors (columns):
      -0.028  1.000 -0.000 -0.000  0.000
      -0.000  0.000  0.000  1.000  0.000
      -0.000  0.000  1.000 -0.000  0.000
       1.000  0.028  0.000  0.000 -0.000
       0.000 -0.000 -0.000 -0.000  1.000
     occupation matrix ns (before diag.):
       0.968 -0.000 -0.000  0.001  0.000
      -0.000  0.987 -0.000  0.000  0.000
      -0.000 -0.000  0.987  0.000  0.000
       0.001  0.000  0.000  0.925 -0.000
       0.000  0.000  0.000 -0.000  0.991
     SPIN  2
     eigenvalues:
       0.432  0.964  0.985  0.985  0.989
     eigenvectors (columns):
      -0.040  0.999 -0.000 -0.000  0.000
      -0.000  0.000  0.000  1.000  0.000
      -0.000  0.000  1.000 -0.000  0.000
       0.999  0.040 -0.000  0.000 -0.000
       0.000 -0.000 -0.000 -0.000  1.000
     occupation matrix ns (before diag.):
       0.964 -0.000 -0.000  0.021  0.000
      -0.000  0.985 -0.000  0.000  0.000
      -0.000 -0.000  0.985  0.000  0.000
       0.021  0.000  0.000  0.433 -0.000
       0.000  0.000  0.000 -0.000  0.989
     ------------------------ ATOM    6 ------------------------
     Tr[ns(  6)] (up, down, total) =   4.35356  4.85883  9.21239
     Atomic magnetic moment for atom   6 =  -0.50527
     SPIN  1
     eigenvalues:
       0.430  0.964  0.985  0.985  0.989
     eigenvectors (columns):
      -0.040  0.999 -0.000 -0.000  0.000
      -0.000  0.000  0.000  1.000  0.000
      -0.000  0.000  1.000 -0.000  0.000
       0.999  0.040  0.000  0.000 -0.000
       0.000 -0.000 -0.000 -0.000  1.000
     occupation matrix ns (before diag.):
       0.964 -0.000 -0.000  0.022  0.000
      -0.000  0.985 -0.000  0.000  0.000
      -0.000 -0.000  0.985  0.000  0.000
       0.022  0.000  0.000  0.431 -0.000
       0.000  0.000  0.000 -0.000  0.989
     SPIN  2
     eigenvalues:
       0.925  0.968  0.987  0.987  0.991
     eigenvectors (columns):
      -0.028  1.000 -0.000 -0.000  0.000
      -0.000  0.000  0.000  1.000  0.000
      -0.000  0.000  1.000 -0.000  0.000
       1.000  0.028  0.000  0.000 -0.000
       0.000 -0.000 -0.000 -0.000  1.000
     occupation matrix ns (before diag.):
       0.968 -0.000 -0.000  0.001  0.000
      -0.000  0.987 -0.000  0.000  0.000
      -0.000 -0.000  0.987  0.000  0.000
       0.001  0.000  0.000  0.926 -0.000
       0.000  0.000  0.000 -0.000  0.991

     Number of occupied Hubbard levels =   18.4269

     negative rho (up, down):  8.631E-02 8.631E-02

     HUBBARD ENERGY =    0.1643  (Ry)

     total cpu time spent up to now is      162.9 secs

     total energy              =   -1671.30944689 Ry
     estimated scf accuracy    <       0.00115593 Ry

     total magnetization       =    -0.01 Bohr mag/cell
     absolute magnetization    =     1.27 Bohr mag/cell

     iteration # 17     ecut=    90.00 Ry     beta= 0.10
     Davidson diagonalization with overlap

---- Real-time Memory Report at c_bands before calling an iterative solver
           926 MiB given to the printing process from OS
             0 MiB allocation reported by mallinfo(arena+hblkhd)
          4312 MiB available memory on the node where the printing process lives
------------------
     ethr =  8.89E-07,  avg # of iterations =  1.1

     =================== HUBBARD OCCUPATIONS ===================
     ------------------------ ATOM    5 ------------------------
     Tr[ns(  5)] (up, down, total) =   4.85783  4.34739  9.20523
     Atomic magnetic moment for atom   5 =   0.51044
     SPIN  1
     eigenvalues:
       0.925  0.967  0.987  0.987  0.991
     eigenvectors (columns):
      -0.028  1.000 -0.000 -0.000  0.000
      -0.000  0.000  0.000  1.000  0.000
      -0.000  0.000  1.000 -0.000  0.000
       1.000  0.028  0.000  0.000 -0.000
       0.000 -0.000 -0.000 -0.000  1.000
     occupation matrix ns (before diag.):
       0.967 -0.000 -0.000  0.001  0.000
      -0.000  0.987 -0.000  0.000  0.000
      -0.000 -0.000  0.987  0.000  0.000
       0.001  0.000  0.000  0.925 -0.000
       0.000  0.000  0.000 -0.000  0.991
     SPIN  2
     eigenvalues:
       0.424  0.964  0.985  0.985  0.989
     eigenvectors (columns):
      -0.040  0.999 -0.000 -0.000  0.000
      -0.000  0.000  0.000  1.000  0.000
      -0.000  0.000  1.000 -0.000  0.000
       0.999  0.040  0.000  0.000 -0.000
       0.000 -0.000 -0.000 -0.000  1.000
     occupation matrix ns (before diag.):
       0.963 -0.000 -0.000  0.022  0.000
      -0.000  0.985 -0.000  0.000  0.000
      -0.000 -0.000  0.985  0.000  0.000
       0.022  0.000  0.000  0.424 -0.000
       0.000  0.000  0.000 -0.000  0.989
     ------------------------ ATOM    6 ------------------------
     Tr[ns(  6)] (up, down, total) =   4.34510  4.85793  9.20303
     Atomic magnetic moment for atom   6 =  -0.51282
     SPIN  1
     eigenvalues:
       0.421  0.964  0.985  0.985  0.989
     eigenvectors (columns):
      -0.040  0.999 -0.000 -0.000  0.000
      -0.000  0.000  0.000  1.000  0.000
      -0.000  0.000  1.000 -0.000  0.000
       0.999  0.040 -0.000  0.000 -0.000
       0.000 -0.000 -0.000 -0.000  1.000
     occupation matrix ns (before diag.):
       0.963 -0.000 -0.000  0.022  0.000
      -0.000  0.985 -0.000  0.000  0.000
      -0.000 -0.000  0.985  0.000  0.000
       0.022  0.000  0.000  0.422 -0.000
       0.000  0.000  0.000 -0.000  0.989
     SPIN  2
     eigenvalues:
       0.925  0.968  0.987  0.987  0.991
     eigenvectors (columns):
      -0.028  1.000 -0.000 -0.000  0.000
      -0.000  0.000  0.000  1.000  0.000
      -0.000  0.000  1.000 -0.000  0.000
       1.000  0.028  0.000  0.000 -0.000
       0.000 -0.000 -0.000 -0.000  1.000
     occupation matrix ns (before diag.):
       0.967 -0.000 -0.000  0.001  0.000
      -0.000  0.987 -0.000  0.000  0.000
      -0.000 -0.000  0.987  0.000  0.000
       0.001  0.000  0.000  0.925 -0.000
       0.000  0.000  0.000 -0.000  0.991

     Number of occupied Hubbard levels =   18.4083

     negative rho (up, down):  8.630E-02 8.630E-02

     HUBBARD ENERGY =    0.1646  (Ry)

     total cpu time spent up to now is      172.4 secs

     total energy              =   -1671.30948911 Ry
     estimated scf accuracy    <       0.00023525 Ry

     total magnetization       =    -0.01 Bohr mag/cell
     absolute magnetization    =     1.28 Bohr mag/cell

     iteration # 18     ecut=    90.00 Ry     beta= 0.10
     Davidson diagonalization with overlap

---- Real-time Memory Report at c_bands before calling an iterative solver
           926 MiB given to the printing process from OS
             0 MiB allocation reported by mallinfo(arena+hblkhd)
          4311 MiB available memory on the node where the printing process lives
------------------
     ethr =  1.81E-07,  avg # of iterations =  1.1

     =================== HUBBARD OCCUPATIONS ===================
     ------------------------ ATOM    5 ------------------------
     Tr[ns(  5)] (up, down, total) =   4.85778  4.35715  9.21493
     Atomic magnetic moment for atom   5 =   0.50063
     SPIN  1
     eigenvalues:
       0.925  0.967  0.987  0.987  0.991
     eigenvectors (columns):
      -0.028  1.000 -0.000 -0.000  0.000
      -0.000  0.000  0.000  1.000  0.000
      -0.000  0.000  1.000 -0.000  0.000
       1.000  0.028  0.000  0.000 -0.000
       0.000 -0.000 -0.000 -0.000  1.000
     occupation matrix ns (before diag.):
       0.967 -0.000 -0.000  0.001  0.000
      -0.000  0.987 -0.000  0.000  0.000
      -0.000 -0.000  0.987  0.000  0.000
       0.001  0.000  0.000  0.925 -0.000
[...]
     1.0000   1.0000   1.0000   1.0000   1.0000   1.0004   1.0011   1.0135
     1.0113   0.4636  -0.0004  -0.0000  -0.0000  -0.0000  -0.0000  -0.0000
    -0.0000  -0.0000  -0.0000  -0.0000  -0.0000  -0.0000

          k =-0.4925 0.0000-0.1609 ( 17692 PWs)   bands (ev):

  -102.7446-101.7721-101.2241 -60.3429 -60.1241 -59.8664 -59.4400 -59.3894
   -58.7593 -58.7277 -58.6965 -58.4585 -31.0340 -15.7227 -15.7144 -11.5258
   -11.2449 -11.0231  -7.5250  -7.1782  -7.1668  -6.9406  -6.6387  -6.6363
    -6.3275  -1.1355  -0.9826  -0.8829  -0.8511  -0.6422  -0.6287   3.5972
     4.4700   4.8276   4.8820   5.1894   5.2212   5.4947   5.4975   5.8234
     5.9756   6.2100   6.2661   6.2957   6.4700   6.7671   6.8739   6.9397
     6.9943   7.0519   7.4616   7.7348   7.7983   7.9246   7.9498   8.0729
     8.0877   8.1871   8.5660   8.6000   8.8105   8.8108   8.8668   9.0176
     9.2319   9.5756  10.3069  14.3067  14.6698  14.9997  15.4901  15.9773
    16.1557  16.2054  16.6680  16.6899  16.9572  17.0128

     occupation numbers 
     1.0000   1.0000   1.0000   1.0000   1.0000   1.0000   1.0000   1.0000
     1.0000   1.0000   1.0000   1.0000   1.0000   1.0000   1.0000   1.0000
     1.0000   1.0000   1.0000   1.0000   1.0000   1.0000   1.0000   1.0000
     1.0000   1.0000   1.0000   1.0000   1.0000   1.0000   1.0000   1.0000
     1.0000   1.0000   1.0000   1.0000   1.0000   1.0000   1.0000   1.0000
     1.0000   1.0000   1.0000   1.0000   1.0000   1.0000   1.0000   1.0000
     1.0000   1.0000   1.0000   1.0000   1.0000   1.0000   1.0000   1.0000
     1.0000   1.0000   1.0000   1.0000   1.0004   1.0004   1.0010   1.0086
     1.0352   0.4368  -0.0003  -0.0000  -0.0000  -0.0000  -0.0000  -0.0000
    -0.0000  -0.0000  -0.0000  -0.0000  -0.0000  -0.0000

          k =-0.4925-0.4848 0.0000 ( 17688 PWs)   bands (ev):

  -102.7446-101.7721-101.2241 -60.3429 -60.1241 -59.8664 -59.4400 -59.3895
   -58.7593 -58.7277 -58.6965 -58.4585 -31.0244 -15.6505 -15.6440 -11.4864
   -11.4500 -11.0875  -6.9868  -6.9518  -6.8890  -6.6455  -6.6360  -6.6002
    -6.4961  -1.5059  -1.5034  -1.4853  -1.3245  -1.1384  -0.9484   3.1454
     3.6372   3.8224   4.1826   4.5935   4.6974   5.1199   5.1756   5.2749
     5.3947   5.5558   5.5998   5.9289   6.3235   6.4846   6.5090   6.6363
     7.7749   8.0464   8.1580   8.2340   8.3803   8.3871   8.5766   8.7279
     8.7753   8.7814   8.9043   9.2715   9.2904   9.3313   9.4811   9.6109
    11.4583  11.5740  12.7191  12.9615  13.3029  15.2965  15.4618  15.8960
    16.0308  16.0856  16.4017  17.0165  17.3336  17.6984

     occupation numbers 
     1.0000   1.0000   1.0000   1.0000   1.0000   1.0000   1.0000   1.0000
     1.0000   1.0000   1.0000   1.0000   1.0000   1.0000   1.0000   1.0000
     1.0000   1.0000   1.0000   1.0000   1.0000   1.0000   1.0000   1.0000
     1.0000   1.0000   1.0000   1.0000   1.0000   1.0000   1.0000   1.0000
     1.0000   1.0000   1.0000   1.0000   1.0000   1.0000   1.0000   1.0000
     1.0000   1.0000   1.0000   1.0000   1.0000   1.0000   1.0000   1.0000
     1.0000   1.0000   1.0000   1.0000   1.0000   1.0000   1.0000   1.0001
     1.0002   1.0002   1.0019   1.0290   1.0221   0.9957   0.7215   0.3308
    -0.0000  -0.0000  -0.0000  -0.0000  -0.0000  -0.0000  -0.0000  -0.0000
    -0.0000  -0.0000  -0.0000  -0.0000  -0.0000  -0.0000

          k =-0.4925-0.4848-0.1609 ( 17704 PWs)   bands (ev):

  -102.7446-101.7721-101.2241 -60.3429 -60.1241 -59.8664 -59.4400 -59.3895
   -58.7593 -58.7277 -58.6965 -58.4585 -31.0244 -15.6511 -15.6433 -11.4864
   -11.4500 -11.0875  -6.9869  -6.9541  -6.8889  -6.6456  -6.6264  -6.6002
    -6.5035  -1.5058  -1.5022  -1.4865  -1.3243  -1.1087  -0.9807   3.1564
     3.6266   3.8212   4.2088   4.5958   4.6756   5.1577   5.1765   5.2518
     5.3947   5.5550   5.6352   5.9007   5.9164   6.4866   6.6357   7.4098
     7.5598   7.7685   8.1076   8.2031   8.3747   8.4293   8.4952   8.6003
     8.7753   8.8900   8.9385   9.2409   9.3055   9.3318   9.4800   9.6079
    11.5733  11.7104  12.7191  12.9738  13.1098  15.3293  15.7161  15.7904
    15.9687  16.1481  16.3586  16.7869  16.8616  17.3271

     occupation numbers 
     1.0000   1.0000   1.0000   1.0000   1.0000   1.0000   1.0000   1.0000
     1.0000   1.0000   1.0000   1.0000   1.0000   1.0000   1.0000   1.0000
     1.0000   1.0000   1.0000   1.0000   1.0000   1.0000   1.0000   1.0000
     1.0000   1.0000   1.0000   1.0000   1.0000   1.0000   1.0000   1.0000
     1.0000   1.0000   1.0000   1.0000   1.0000   1.0000   1.0000   1.0000
     1.0000   1.0000   1.0000   1.0000   1.0000   1.0000   1.0000   1.0000
     1.0000   1.0000   1.0000   1.0000   1.0000   1.0000   1.0000   1.0000
     1.0002   1.0015   1.0031   1.0346   1.0144   0.9952   0.7243   0.3395
    -0.0000  -0.0000  -0.0000  -0.0000  -0.0000  -0.0000  -0.0000  -0.0000
    -0.0000  -0.0000  -0.0000  -0.0000  -0.0000  -0.0000

     the Fermi energy is     9.5552 ev

!    total energy              =   -1671.32184420 Ry
     estimated scf accuracy    <          6.4E-11 Ry
     smearing contrib. (-TS)   =      -0.00214262 Ry
     internal energy E=F+TS    =   -1671.31970159 Ry

     The total energy is F=E-TS. E is the sum of the following terms:
     one-electron contribution =   -1329.24290025 Ry
     hartree contribution      =     736.54479874 Ry
     xc contribution           =    -250.60929779 Ry
     ewald contribution        =    -828.19472918 Ry
     Hubbard energy            =       0.18242689 Ry

     total magnetization       =    -0.00 Bohr mag/cell
     absolute magnetization    =     0.92 Bohr mag/cell

     convergence has been achieved in  74 iterations

     negative rho (up, down):  8.709E-02 8.709E-02

     Forces acting on atoms (cartesian axes, Ry/au):

     atom    1 type  1   force =     0.00000000    0.00000000    0.00000056
     atom    2 type  2   force =     0.00000000    0.00000000    0.00007182
     atom    3 type  2   force =     0.00000000    0.00000000   -0.00007318
     atom    4 type  3   force =     0.00000000    0.00000000   -0.00000060
     atom    5 type  4   force =     0.00000000    0.00000000   -0.00009217
     atom    6 type  5   force =     0.00000000    0.00000000    0.00009113
     atom    7 type  6   force =     0.00000000    0.00000000   -0.00025875
     atom    8 type  6   force =     0.00000000    0.00000000    0.00025957
     atom    9 type  6   force =     0.00000000    0.00000000   -0.00001487
     atom   10 type  6   force =     0.00000000    0.00000000    0.00001571
     atom   11 type  6   force =     0.00000000    0.00000000    0.00000078
     atom   12 type  6   force =     0.00000000    0.00000000    0.00014260
     atom   13 type  6   force =     0.00000000    0.00000000   -0.00014259
     The non-local contrib.  to forces
     atom    1 type  1   force =     0.00000000    0.00000000   -0.00000029
     atom    2 type  2   force =     0.00000000    0.00000000   -0.00464347
     atom    3 type  2   force =     0.00000000    0.00000000    0.00464061
     atom    4 type  3   force =     0.00000000    0.00000000    0.00000141
     atom    5 type  4   force =     0.00000000    0.00000000    0.01355244
     atom    6 type  5   force =     0.00000000    0.00000000   -0.01353670
     atom    7 type  6   force =     0.00000000    0.00000000    0.12493197
     atom    8 type  6   force =     0.00000000    0.00000000   -0.12492201
     atom    9 type  6   force =     0.00000000    0.00000000    0.15827220
     atom   10 type  6   force =     0.00000000    0.00000000   -0.15826131
     atom   11 type  6   force =     0.00000000    0.00000000    0.00000447
     atom   12 type  6   force =     0.00000000    0.00000000   -0.50333212
     atom   13 type  6   force =     0.00000000    0.00000000    0.50332890
     The ionic contribution  to forces
     atom    1 type  1   force =     0.00000000    0.00000000   -0.00002471
     atom    2 type  2   force =     0.00000000    0.00000000  -14.63491932
     atom    3 type  2   force =     0.00000000    0.00000000   14.63476864
     atom    4 type  3   force =    -0.00000000   -0.00000000    0.00025554
     atom    5 type  4   force =    -0.00000000   -0.00000000  -34.17356489
     atom    6 type  5   force =    -0.00000000   -0.00000000   34.17363253
     atom    7 type  6   force =     0.00000000   -0.00000000   -9.93804170
     atom    8 type  6   force =     0.00000000   -0.00000000    9.93787304
     atom    9 type  6   force =    -0.00000000    0.00000000  -10.08637897
     atom   10 type  6   force =    -0.00000000    0.00000000   10.08621688
     atom   11 type  6   force =    -0.00000000    0.00000000    0.00006721
     atom   12 type  6   force =    -0.00000000   -0.00000000    2.56238030
     atom   13 type  6   force =    -0.00000000   -0.00000000   -2.56226456
     The local contribution  to forces
     atom    1 type  1   force =     0.00000000    0.00000000    0.00002548
     atom    2 type  2   force =     0.00000000    0.00000000   14.63953584
     atom    3 type  2   force =     0.00000000    0.00000000  -14.63938393
     atom    4 type  3   force =    -0.00000000    0.00000000   -0.00025633
     atom    5 type  4   force =    -0.00000000    0.00000000   34.15304818
     atom    6 type  5   force =    -0.00000000   -0.00000000  -34.15313396
     atom    7 type  6   force =     0.00000000   -0.00000000    9.81304563
     atom    8 type  6   force =     0.00000000    0.00000000   -9.81288613
     atom    9 type  6   force =     0.00000000    0.00000000    9.92850729
     atom   10 type  6   force =    -0.00000000    0.00000000   -9.92835522
     atom   11 type  6   force =    -0.00000000    0.00000000   -0.00007045
     atom   12 type  6   force =    -0.00000000    0.00000000   -2.06154484
     atom   13 type  6   force =    -0.00000000    0.00000000    2.06143218
     The core correction contribution to forces
     atom    1 type  1   force =    -0.00000000   -0.00000000    0.00000000
     atom    2 type  2   force =    -0.00000000   -0.00000000    0.00050769
     atom    3 type  2   force =    -0.00000000   -0.00000000   -0.00050765
     atom    4 type  3   force =    -0.00000000    0.00000000   -0.00000001
     atom    5 type  4   force =    -0.00000000   -0.00000000   -0.00001793
     atom    6 type  5   force =    -0.00000000    0.00000000    0.00001789
     atom    7 type  6   force =     0.00000000    0.00000000   -0.00049209
     atom    8 type  6   force =     0.00000000   -0.00000000    0.00049201
     atom    9 type  6   force =     0.00000000    0.00000000   -0.00070087
     atom   10 type  6   force =    -0.00000000    0.00000000    0.00070077
     atom   11 type  6   force =    -0.00000000    0.00000000   -0.00000005
     atom   12 type  6   force =    -0.00000000   -0.00000000    0.00294933
     atom   13 type  6   force =    -0.00000000   -0.00000000   -0.00294931
     The Hubbard contrib.    to forces
     atom    1 type  1   force =     0.00000000    0.00000000    0.00000001
     atom    2 type  2   force =     0.00000000    0.00000000   -0.00040961
     atom    3 type  2   force =     0.00000000    0.00000000    0.00040962
     atom    4 type  3   force =     0.00000000    0.00000000    0.00000000
     atom    5 type  4   force =     0.00000000    0.00000000    0.00689499
     atom    6 type  5   force =     0.00000000    0.00000000   -0.00689443
     atom    7 type  6   force =     0.00000000    0.00000000    0.00029652
     atom    8 type  6   force =     0.00000000    0.00000000   -0.00029654
     atom    9 type  6   force =     0.00000000    0.00000000    0.00028427
     atom   10 type  6   force =     0.00000000    0.00000000   -0.00028428
     atom   11 type  6   force =     0.00000000    0.00000000    0.00000000
     atom   12 type  6   force =     0.00000000    0.00000000   -0.00031332
     atom   13 type  6   force =     0.00000000    0.00000000    0.00031334
     The SCF correction term to forces
     atom    1 type  1   force =    -0.00000000   -0.00000000    0.00000008
     atom    2 type  2   force =     0.00000000    0.00000000    0.00000070
     atom    3 type  2   force =     0.00000000    0.00000000   -0.00000047
     atom    4 type  3   force =    -0.00000000   -0.00000000   -0.00000121
     atom    5 type  4   force =     0.00000000   -0.00000000   -0.00000496
     atom    6 type  5   force =    -0.00000000   -0.00000000    0.00000580
     atom    7 type  6   force =     0.00000000    0.00000000    0.00000093
     atom    8 type  6   force =     0.00000000   -0.00000000   -0.00000080
     atom    9 type  6   force =    -0.00000000    0.00000000    0.00000122
     atom   10 type  6   force =    -0.00000000   -0.00000000   -0.00000111
     atom   11 type  6   force =     0.00000000   -0.00000000   -0.00000039
     atom   12 type  6   force =     0.00000000   -0.00000000    0.00000326
     atom   13 type  6   force =     0.00000000    0.00000000   -0.00000312

     Total force =     0.000450     Total SCF correction =     0.000009


     Computing stress (Cartesian axis) and pressure


     negative rho (up, down):  8.709E-02 8.709E-02
          total   stress  (Ry/bohr**3)                   (kbar)     P=        0.40
   0.00000013   0.00000000   0.00000000            0.02        0.00        0.00
   0.00000000   0.00000232   0.00000000            0.00        0.34        0.00
   0.00000000   0.00000000   0.00000580            0.00        0.00        0.85

     kinetic stress (kbar)  22045.63      0.00      0.00
                                0.00  21862.41      0.00
                                0.00      0.00  22171.37

     local   stress (kbar) -25555.22     -0.00      0.00
                               -0.00 -43036.96     -0.00
                                0.00     -0.00   5550.93

     nonloc. stress (kbar)  11227.86      0.00      0.00
                                0.00  11216.71      0.00
                                0.00      0.00  11393.22

     hartree stress (kbar)  31830.78     -0.00      0.00
                               -0.00  39660.17     -0.00
                                0.00     -0.00  16996.34

     exc-cor stress (kbar)   -468.09      0.00     -0.00
                                0.00   -462.80      0.00
                               -0.00      0.00   -471.57

     corecor stress (kbar)  -7493.25      0.00     -0.00
                                0.00  -7493.16      0.00
                               -0.00      0.00  -7494.19

     ewald   stress (kbar) -30952.94      0.00     -0.00
                                0.00 -21106.75      0.00
                               -0.00      0.00 -47438.27

     hubbard stress (kbar)   -634.75      0.00      0.00
                                0.00   -639.29      0.00
                                0.00      0.00   -706.98

     DFT-D   stress (kbar)      0.00      0.00      0.00
                                0.00      0.00      0.00
                                0.00      0.00      0.00

     XDM     stress (kbar)      0.00      0.00      0.00
                                0.00      0.00      0.00
                                0.00      0.00      0.00

     dft-nl  stress (kbar)      0.00      0.00      0.00
                                0.00      0.00      0.00
                                0.00      0.00      0.00

     TS-vdW  stress (kbar)      0.00      0.00      0.00
                                0.00      0.00      0.00
                                0.00      0.00      0.00

     MDB     stress (kbar)      0.00      0.00      0.00
                                0.00      0.00      0.00
                                0.00      0.00      0.00

     3D-RISM stress (kbar)      0.00      0.00      0.00
                                0.00      0.00      0.00
                                0.00      0.00      0.00


     Writing all to output data dir ./YBCO.vc-relax/YBCO.vc-relax.save/
 
     init_run     :     12.37s CPU     13.05s WALL (       2 calls)
     electrons    :   8788.18s CPU   9392.22s WALL (      18 calls)
     update_pot   :     18.47s CPU     18.72s WALL (      16 calls)
     forces       :    461.47s CPU    473.42s WALL (      18 calls)
     stress       :   1124.01s CPU   1162.00s WALL (      18 calls)

     Called by init_run:
     wfcinit      :      6.95s CPU      7.02s WALL (       2 calls)
     wfcinit:atom :      0.10s CPU      0.10s WALL (      32 calls)
     wfcinit:wfcr :      4.66s CPU      4.71s WALL (      32 calls)
     potinit      :      0.29s CPU      0.32s WALL (       2 calls)
     hinit0       :      2.76s CPU      2.85s WALL (       2 calls)

     Called by electrons:
     c_bands      :   4603.46s CPU   4657.70s WALL (     932 calls)
     sum_band     :   2955.63s CPU   3268.60s WALL (     932 calls)
     v_of_rho     :    126.92s CPU    128.38s WALL (     948 calls)
     v_h          :      5.46s CPU      5.57s WALL (     948 calls)
     v_xc         :    125.80s CPU    127.36s WALL (     984 calls)
     newd         :   1084.89s CPU   1323.95s WALL (     948 calls)
     mix_rho      :     26.91s CPU     27.53s WALL (     932 calls)

     Called by c_bands:
     init_us_2    :    104.83s CPU    105.59s WALL (   31296 calls)
     init_us_2:cp :    104.70s CPU    105.51s WALL (   31296 calls)
     cegterg      :   4057.39s CPU   4108.91s WALL (   14912 calls)

     Called by sum_band:
     sum_band:wei :      1.29s CPU      1.31s WALL (     932 calls)
     sum_band:loo :    746.20s CPU    757.66s WALL (     932 calls)
     sum_band:buf :     16.58s CPU     16.63s WALL (   14912 calls)
     sum_band:ini :     49.50s CPU     49.58s WALL (   14912 calls)
     sum_band:cal :    170.90s CPU    173.18s WALL (   14912 calls)
     sum_band:bec :      1.26s CPU      1.26s WALL (   14912 calls)
     addusdens    :   2156.83s CPU   2449.10s WALL (     932 calls)
                                        0.00s GPU  (     932 calls)
     addusd:skk   :      3.33s CPU      3.52s WALL (    5592 calls)
                                        0.00s GPU  (    5592 calls)

     Called by *egterg:
     cdiaghg      :    141.78s CPU    142.40s WALL (   39622 calls)
     cegterg:over :    294.72s CPU    298.81s WALL (   24998 calls)
     cegterg:upda :    154.79s CPU    154.92s WALL (   24998 calls)
     cegterg:last :    299.59s CPU    299.94s WALL (   22241 calls)
     h_psi        :   2582.67s CPU   2623.82s WALL (   39942 calls)
     s_psi        :    390.51s CPU    392.15s WALL (   41382 calls)
     g_psi        :     11.36s CPU     11.38s WALL (   24998 calls)

     Called by h_psi:
     h_psi:calbec :    370.96s CPU    376.03s WALL (   39942 calls)
     vloc_psi     :   1719.17s CPU   1752.85s WALL (   39942 calls)
     add_vuspsi   :    365.22s CPU    365.66s WALL (   39942 calls)
     vhpsi        :     97.82s CPU     99.64s WALL (   39942 calls)

     General routines
     calbec       :   1013.21s CPU   1030.51s WALL (  475180 calls)
     fft          :     56.42s CPU     57.98s WALL (   24404 calls)
     ffts         :      2.15s CPU      2.19s WALL (    3760 calls)
     fftw         :   1666.12s CPU   1698.71s WALL ( 6042404 calls)
     interpolate  :      6.61s CPU      6.74s WALL (    1896 calls)
     davcio       :      0.00s CPU      0.00s WALL (      32 calls)
 
     Parallel routines

     Hubbard U routines
     new_ns       :     27.31s CPU     27.61s WALL (     932 calls)
     vhpsi        :     97.82s CPU     99.64s WALL (   39942 calls)
     force_hub    :    407.00s CPU    414.09s WALL (      18 calls)
                                        0.00s GPU  (      18 calls)
     stres_hub    :    647.17s CPU    655.69s WALL (      18 calls)
 
     PWSCF        :      2h53m CPU      3h 4m WALL

 
   This run was terminated on:   3: 7:47  16Dec2023            

=------------------------------------------------------------------------------=
   JOB DONE.
=------------------------------------------------------------------------------=
