
     Program BANDS v.7.2 starts on 29Dec2023 at 12:33:14 

     This program is part of the open-source Quantum ESPRESSO suite
     for quantum simulation of materials; please cite
         "P. Giannozzi et al., J. Phys.:Condens. Matter 21 395502 (2009);
         "P. Giannozzi et al., J. Phys.:Condens. Matter 29 465901 (2017);
         "P. Giannozzi et al., J. Chem. Phys. 152 154105 (2020);
          URL http://www.quantum-espresso.org", 
     in publications or presentations arising from this work. More details at
     http://www.quantum-espresso.org/quote

     Parallel version (MPI), running on     4 processors

     MPI processes distributed on     1 nodes
     R & G space division:  proc/nbgrp/npool/nimage =       4
     7455 MiB available memory on the printing compute node when the environment starts
 

     Reading xml data from directory:

     ./YBCO6/YBCO6.save/

     IMPORTANT: XC functional enforced from input :
     Exchange-correlation= PBE
                           (   1   4   3   4   0   0   0)
     Any further DFT definition will be discarded
     Please, verify this is what you really want

 
     Parallelization info
     --------------------
     sticks:   dense  smooth     PW     G-vecs:    dense   smooth      PW
     Min         768     384    109                96560    34108    5157
     Max         770     386    110                96564    34112    5164
     Sum        3077    1541    437               386249   136441   20643
 
     Using Slab Decomposition
 

     negative rho (up, down):  1.728E-01 0.000E+00
     Reading collected, re-writing distributed wavefunctions
     high-symmetry point:  0.0000 0.0000 0.0000   x coordinate   0.0000
     high-symmetry point:  0.5000 0.0000 0.0000   x coordinate   0.5000
     high-symmetry point:  0.5000 0.5000 0.0000   x coordinate   1.0000
     high-symmetry point:  0.0000 0.5000 0.0000   x coordinate   1.5000
     high-symmetry point:  0.0000 0.0000 0.0000   x coordinate   2.0000
     high-symmetry point:  0.5000 0.5000 0.0000   x coordinate   2.7071

     Plottable bands (eV) written to file YBCO6.band.gnu
     Bands written to file YBCO6.band

 **************************************************************************

                    xk=(   0.00000,   0.00000,   0.00000  )

     point group D_2h (mmm) 
     there are  8 classes
     the character table:

       E     C2    C2'   C2''  i     s_v   s_v'  s_v''
A_g    1.00  1.00  1.00  1.00  1.00  1.00  1.00  1.00
B_1g   1.00  1.00 -1.00 -1.00  1.00  1.00 -1.00 -1.00
B_2g   1.00 -1.00  1.00 -1.00  1.00 -1.00  1.00 -1.00
B_3g   1.00 -1.00 -1.00  1.00  1.00 -1.00 -1.00  1.00
A_u    1.00  1.00  1.00  1.00 -1.00 -1.00 -1.00 -1.00
B_1u   1.00  1.00 -1.00 -1.00 -1.00 -1.00  1.00  1.00
B_2u   1.00 -1.00  1.00 -1.00 -1.00  1.00 -1.00  1.00
B_3u   1.00 -1.00 -1.00  1.00 -1.00  1.00  1.00 -1.00

     the symmetry operations in each class and the name of the first element:

     E        1
                                                                 
     C2       2
                                                                 
     C2'      4
                                                                 
     C2''     3
                                                                 
     i        5
                                                                 
     s_v      6
                                                                 
     s_v'     8
                                                                 
     s_v''    7
                                                                 

     Band symmetry, D_2h (mmm)  point group:

     e(  1 -  2) =   -101.70528  eV     2   --> A_g            
     e(  1 -  2) =   -101.70528  eV     2   --> B_1u           
     e(  3 -  3) =   -101.28868  eV     1   --> A_g            
     e(  4 -  5) =    -59.23228  eV     2   --> B_2g           
     e(  4 -  5) =    -59.23228  eV     2   --> B_3u           
     e(  6 -  7) =    -59.22810  eV     2   --> B_3g           
     e(  6 -  7) =    -59.22810  eV     2   --> B_2u           
     e(  8 -  8) =    -58.83515  eV     1   --> A_g            
     e(  9 -  9) =    -58.83437  eV     1   --> B_1u           
     e( 10 - 10) =    -58.82366  eV     1   --> B_1u           
     e( 11 - 11) =    -58.62355  eV     1   --> B_3u           
     e( 12 - 12) =    -58.62343  eV     1   --> B_2u           
     e( 13 - 13) =    -30.61896  eV     1   --> A_g            
     e( 14 - 14) =    -15.93574  eV     1   --> A_g            
     e( 15 - 15) =    -15.92339  eV     1   --> B_1u           
     e( 16 - 16) =    -11.08494  eV     1   --> B_1u           
     e( 17 - 17) =    -10.59652  eV     1   --> B_2u           
     e( 18 - 18) =    -10.59274  eV     1   --> B_3u           
     e( 19 - 19) =     -7.65849  eV     1   --> A_g            
     e( 20 - 20) =     -6.78724  eV     1   --> B_1u           
     e( 21 - 21) =     -6.59158  eV     1   --> A_g            
     e( 22 - 22) =     -6.47517  eV     1   --> A_g            
     e( 23 - 23) =     -6.33720  eV     1   --> B_1u           
     e( 24 - 24) =     -6.22743  eV     1   --> B_1u           
     e( 25 - 25) =     -1.38065  eV     1   --> A_g            
     e( 26 - 26) =     -1.12746  eV     1   --> B_1u           
     e( 27 - 27) =     -0.83710  eV     1   --> B_3u           
     e( 28 - 28) =     -0.83592  eV     1   --> B_2u           
     e( 29 - 29) =     -0.82432  eV     1   --> B_2g           
     e( 30 - 30) =     -0.82315  eV     1   --> B_3g           
     e( 31 - 31) =      5.53482  eV     1   --> A_g            
     e( 32 - 32) =      5.76713  eV     1   --> B_2g           
     e( 33 - 33) =      5.77131  eV     1   --> B_3g           
     e( 34 - 34) =      5.92106  eV     1   --> A_g            
     e( 35 - 35) =      6.09288  eV     1   --> B_2u           
     e( 36 - 36) =      6.10375  eV     1   --> B_3u           
     e( 37 - 37) =      6.92783  eV     1   --> B_1u           
     e( 38 - 38) =      6.98729  eV     1   --> A_g            
     e( 39 - 39) =      7.40855  eV     1   --> B_2g           
     e( 40 - 40) =      7.40903  eV     1   --> B_3g           
     e( 41 - 41) =      7.91169  eV     1   --> B_1u           
     e( 42 - 42) =      8.00268  eV     1   --> B_1g           
     e( 43 - 43) =      8.03401  eV     1   --> A_g            
     e( 44 - 44) =      8.04726  eV     1   --> A_u            
     e( 45 - 45) =      8.23033  eV     1   --> B_1u           
     e( 46 - 46) =      8.23361  eV     1   --> B_3g           
     e( 47 - 47) =      8.24863  eV     1   --> B_2g           
     e( 48 - 48) =      8.24987  eV     1   --> B_3u           
     e( 49 - 49) =      8.25213  eV     1   --> B_2u           
     e( 50 - 50) =      8.41741  eV     1   --> A_g            
     e( 51 - 51) =      8.57471  eV     1   --> B_2u           
     e( 52 - 52) =      8.58544  eV     1   --> B_3u           
     e( 53 - 53) =      8.67976  eV     1   --> B_1g           
     e( 54 - 54) =      8.87519  eV     1   --> B_2g           
     e( 55 - 55) =      8.90769  eV     1   --> A_g            
     e( 56 - 56) =      8.91838  eV     1   --> B_3g           
     e( 57 - 57) =      9.17212  eV     1   --> A_g            
     e( 58 - 58) =      9.29695  eV     1   --> B_3u           
     e( 59 - 59) =      9.31622  eV     1   --> B_2u           
     e( 60 - 60) =      9.47978  eV     1   --> B_1u           
     e( 61 - 61) =      9.54773  eV     1   --> B_1u           
     e( 62 - 62) =     10.15269  eV     1   --> B_2g           
     e( 63 - 63) =     10.15405  eV     1   --> B_3g           
     e( 64 - 64) =     12.68306  eV     1   --> A_g            
     e( 65 - 65) =     13.40890  eV     1   --> A_g            
     e( 66 - 66) =     13.57551  eV     1   --> A_g            
     e( 67 - 67) =     13.74230  eV     1   --> B_1u           
     e( 68 - 68) =     14.79856  eV     1   --> A_g            
     e( 69 - 69) =     15.36486  eV     1   --> B_1u           
     e( 70 - 70) =     15.56912  eV     1   --> B_3u           
     e( 71 - 71) =     15.57256  eV     1   --> B_2u           
     e( 72 - 72) =     15.70462  eV     1   --> B_1g           
     e( 73 - 73) =     16.09728  eV     1   --> A_g            
     e( 74 - 74) =     16.43256  eV     1   --> B_1u           
     e( 75 - 75) =     17.09840  eV     1   --> B_3g           
     e( 76 - 76) =     17.10697  eV     1   --> B_2g           
     e( 77 - 77) =     17.49932  eV     1   --> A_g            
     e( 78 - 78) =     17.82090  eV     1   --> B_1g           
     e( 79 - 79) =     17.84308  eV     1   --> B_1u           
     e( 80 - 80) =     17.85278  eV     1   --> A_u            
     e( 81 - 81) =     18.70692  eV     1   --> B_3g           
     e( 82 - 82) =     18.75555  eV     1   --> B_2g           
     e( 83 - 83) =     18.95380  eV     1   --> A_g            
     e( 84 - 84) =     19.06563  eV     1   --> A_g            
     e( 85 - 85) =     19.43706  eV     1   --> B_1u           
     e( 86 - 86) =     19.57392  eV     1   --> B_3u           
     e( 87 - 87) =     19.58367  eV     1   --> B_2u           
     e( 88 - 88) =     19.96914  eV     1   --> B_1u           
     e( 89 - 89) =     20.03569  eV     1   --> B_1g           
     e( 90 - 90) =     20.07801  eV     1   --> A_u            
     e( 91 - 91) =     20.24957  eV     1   --> A_g            
     e( 92 - 92) =     20.31945  eV     1   --> B_2g           
     e( 93 - 93) =     20.32316  eV     1   --> B_3g           
     e( 94 - 94) =     20.56241  eV     1   --> B_3u           

 **************************************************************************

 **************************************************************************

                    xk=(   0.02500,   0.00000,   0.00000  )

     point group C_2v (mm2) 
     there are  4 classes
     the character table:

       E     C2    s_v   s_v' 
A_1    1.00  1.00  1.00  1.00
A_2    1.00  1.00 -1.00 -1.00
B_1    1.00 -1.00  1.00 -1.00
B_2    1.00 -1.00 -1.00  1.00

     the symmetry operations in each class and the name of the first element:

     E        1
                                                                 
     C2       2
                                                                 
     s_v      4
                                                                 
     s_v'     3
                                                                 

     Band symmetry, C_2v (mm2)  point group:

     e(  1 -  2) =   -101.70528  eV     2   --> A_1  D_1  S_1  
     e(  1 -  2) =   -101.70528  eV     2   --> B_1  D_3  S_3  
     e(  3 -  3) =   -101.28868  eV     1   --> A_1  D_1  S_1  
     e(  4 -  5) =    -59.23228  eV     2   --> A_2  D_2  S_2  
     e(  4 -  5) =    -59.23228  eV     2   --> B_2  D_4  S_4  
     e(  6 -  7) =    -59.22810  eV     2   --> A_1  D_1  S_1  
     e(  6 -  7) =    -59.22810  eV     2   --> B_1  D_3  S_3  
     e(  8 -  8) =    -58.83514  eV     1   --> A_1  D_1  S_1  
     e(  9 -  9) =    -58.83437  eV     1   --> B_1  D_3  S_3  
     e( 10 - 10) =    -58.82366  eV     1   --> B_1  D_3  S_3  
     e( 11 - 11) =    -58.62355  eV     1   --> B_2  D_4  S_4  
     e( 12 - 12) =    -58.62343  eV     1   --> A_1  D_1  S_1  
     e( 13 - 13) =    -30.61888  eV     1   --> A_1  D_1  S_1  
     e( 14 - 14) =    -15.93508  eV     1   --> A_1  D_1  S_1  
     e( 15 - 15) =    -15.92273  eV     1   --> B_1  D_3  S_3  
     e( 16 - 16) =    -11.08372  eV     1   --> B_1  D_3  S_3  
     e( 17 - 17) =    -10.60022  eV     1   --> A_1  D_1  S_1  
     e( 18 - 18) =    -10.59264  eV     1   --> B_2  D_4  S_4  
     e( 19 - 19) =     -7.65413  eV     1   --> A_1  D_1  S_1  
     e( 20 - 20) =     -6.78745  eV     1   --> B_1  D_3  S_3  
     e( 21 - 21) =     -6.59350  eV     1   --> A_1  D_1  S_1  
     e( 22 - 22) =     -6.47436  eV     1   --> A_1  D_1  S_1  
     e( 23 - 23) =     -6.33912  eV     1   --> B_1  D_3  S_3  
     e( 24 - 24) =     -6.22901  eV     1   --> B_1  D_3  S_3  
     e( 25 - 25) =     -1.38039  eV     1   --> A_1  D_1  S_1  
     e( 26 - 26) =     -1.12773  eV     1   --> B_1  D_3  S_3  
     e( 27 - 27) =     -0.83641  eV     1   --> A_1  D_1  S_1  
     e( 28 - 28) =     -0.83590  eV     1   --> B_2  D_4  S_4  
     e( 29 - 30) =     -0.82310  eV     2   --> A_2  D_2  S_2  
     e( 29 - 30) =     -0.82310  eV     2   --> B_1  D_3  S_3  
     e( 31 - 31) =      5.53274  eV     1   --> A_1  D_1  S_1  
     e( 32 - 32) =      5.76782  eV     1   --> B_1  D_3  S_3  
     e( 33 - 33) =      5.76899  eV     1   --> A_2  D_2  S_2  
     e( 34 - 34) =      5.92135  eV     1   --> A_1  D_1  S_1  
     e( 35 - 35) =      6.08631  eV     1   --> A_1  D_1  S_1  
     e( 36 - 36) =      6.10435  eV     1   --> B_2  D_4  S_4  
     e( 37 - 37) =      6.92598  eV     1   --> B_1  D_3  S_3  
     e( 38 - 38) =      6.98740  eV     1   --> A_1  D_1  S_1  
     e( 39 - 39) =      7.40494  eV     1   --> B_1  D_3  S_3  
     e( 40 - 40) =      7.40516  eV     1   --> A_2  D_2  S_2  
     e( 41 - 41) =      7.89774  eV     1   --> B_1  D_3  S_3  
     e( 42 - 42) =      7.98863  eV     1   --> B_2  D_4  S_4  
     e( 43 - 43) =      8.02658  eV     1   --> A_2  D_2  S_2  
     e( 44 - 44) =      8.03180  eV     1   --> A_1  D_1  S_1  
     e( 45 - 45) =      8.17676  eV     1   --> B_1  D_3  S_3  
     e( 46 - 46) =      8.25053  eV     1   --> B_2  D_4  S_4  
     e( 47 - 47) =      8.25436  eV     1   --> A_1  D_1  S_1  
     e( 48 - 48) =      8.26474  eV     1   --> A_2  D_2  S_2  
     e( 49 - 49) =      8.30716  eV     1   --> B_1  D_3  S_3  
     e( 50 - 50) =      8.41550  eV     1   --> A_1  D_1  S_1  
     e( 51 - 51) =      8.57221  eV     1   --> A_1  D_1  S_1  
     e( 52 - 52) =      8.58884  eV     1   --> B_2  D_4  S_4  
     e( 53 - 53) =      8.67941  eV     1   --> B_2  D_4  S_4  
     e( 54 - 54) =      8.87801  eV     1   --> A_2  D_2  S_2  
     e( 55 - 55) =      8.88600  eV     1   --> B_1  D_3  S_3  
     e( 56 - 56) =      8.90942  eV     1   --> A_1  D_1  S_1  
     e( 57 - 57) =      9.13010  eV     1   --> A_1  D_1  S_1  
     e( 58 - 58) =      9.29906  eV     1   --> B_2  D_4  S_4  
     e( 59 - 59) =      9.35671  eV     1   --> A_1  D_1  S_1  
     e( 60 - 60) =      9.49731  eV     1   --> B_1  D_3  S_3  
     e( 61 - 61) =      9.56263  eV     1   --> B_1  D_3  S_3  
     e( 62 - 62) =     10.14970  eV     1   --> A_2  D_2  S_2  
     e( 63 - 63) =     10.15031  eV     1   --> B_1  D_3  S_3  
     e( 64 - 64) =     12.69296  eV     1   --> A_1  D_1  S_1  
     e( 65 - 65) =     13.42029  eV     1   --> A_1  D_1  S_1  
     e( 66 - 66) =     13.57590  eV     1   --> A_1  D_1  S_1  
     e( 67 - 67) =     13.75383  eV     1   --> B_1  D_3  S_3  
     e( 68 - 68) =     14.80358  eV     1   --> A_1  D_1  S_1  
     e( 69 - 69) =     15.37851  eV     1   --> B_1  D_3  S_3  
     e( 70 - 70) =     15.55635  eV     1   --> A_1  D_1  S_1  
     e( 71 - 71) =     15.57337  eV     1   --> B_2  D_4  S_4  
     e( 72 - 72) =     15.70338  eV     1   --> B_2  D_4  S_4  
     e( 73 - 73) =     16.11351  eV     1   --> A_1  D_1  S_1  
     e( 74 - 74) =     16.43673  eV     1   --> B_1  D_3  S_3  
     e( 75 - 75) =     17.08588  eV     1   --> B_1  D_3  S_3  
     e( 76 - 76) =     17.10541  eV     1   --> A_2  D_2  S_2  
     e( 77 - 77) =     17.50925  eV     1   --> A_1  D_1  S_1  
     e( 78 - 78) =     17.82875  eV     1   --> B_2  D_4  S_4  
     e( 79 - 79) =     17.86465  eV     1   --> B_1  D_3  S_3  
     e( 80 - 80) =     17.86486  eV     1   --> A_2  D_2  S_2  
     e( 81 - 81) =     18.69452  eV     1   --> B_1  D_3  S_3  
     e( 82 - 82) =     18.75495  eV     1   --> A_2  D_2  S_2  
     e( 83 - 83) =     18.94575  eV     1   --> A_1  D_1  S_1  
     e( 84 - 84) =     19.06501  eV     1   --> A_1  D_1  S_1  
     e( 85 - 85) =     19.44746  eV     1   --> B_1  D_3  S_3  
     e( 86 - 86) =     19.57148  eV     1   --> A_1  D_1  S_1  
     e( 87 - 87) =     19.57653  eV     1   --> B_2  D_4  S_4  
     e( 88 - 88) =     19.97135  eV     1   --> B_1  D_3  S_3  
     e( 89 - 89) =     20.03008  eV     1   --> B_2  D_4  S_4  
     e( 90 - 90) =     20.07463  eV     1   --> A_2  D_2  S_2  
     e( 91 - 91) =     20.24931  eV     1   --> A_1  D_1  S_1  
     e( 92 - 92) =     20.31949  eV     1   --> A_2  D_2  S_2  
     e( 93 - 93) =     20.32055  eV     1   --> B_1  D_3  S_3  
     e( 94 - 94) =     20.55822  eV     1   --> A_1  D_1  S_1  

 **************************************************************************

 **************************************************************************

                    xk=(   0.05000,   0.00000,   0.00000  )

     Band symmetry, C_2v (mm2)  point group:

     e(  1 -  2) =   -101.70528  eV     2   --> A_1  D_1  S_1  
     e(  1 -  2) =   -101.70528  eV     2   --> B_1  D_3  S_3  
     e(  3 -  3) =   -101.28868  eV     1   --> A_1  D_1  S_1  
     e(  4 -  5) =    -59.23228  eV     2   --> A_2  D_2  S_2  
     e(  4 -  5) =    -59.23228  eV     2   --> B_2  D_4  S_4  
     e(  6 -  7) =    -59.22810  eV     2   --> A_1  D_1  S_1  
     e(  6 -  7) =    -59.22810  eV     2   --> B_1  D_3  S_3  
     e(  8 -  8) =    -58.83514  eV     1   --> A_1  D_1  S_1  
     e(  9 -  9) =    -58.83437  eV     1   --> B_1  D_3  S_3  
     e( 10 - 10) =    -58.82366  eV     1   --> B_1  D_3  S_3  
     e( 11 - 11) =    -58.62355  eV     1   --> B_2  D_4  S_4  
     e( 12 - 12) =    -58.62343  eV     1   --> A_1  D_1  S_1  
     e( 13 - 13) =    -30.61866  eV     1   --> A_1  D_1  S_1  
     e( 14 - 14) =    -15.93309  eV     1   --> A_1  D_1  S_1  
     e( 15 - 15) =    -15.92078  eV     1   --> B_1  D_3  S_3  
     e( 16 - 16) =    -11.08008  eV     1   --> B_1  D_3  S_3  
     e( 17 - 17) =    -10.61115  eV     1   --> A_1  D_1  S_1  
     e( 18 - 18) =    -10.59232  eV     1   --> B_2  D_4  S_4  
     e( 19 - 19) =     -7.64120  eV     1   --> A_1  D_1  S_1  
     e( 20 - 20) =     -6.78814  eV     1   --> B_1  D_3  S_3  
     e( 21 - 21) =     -6.59926  eV     1   --> A_1  D_1  S_1  
     e( 22 - 22) =     -6.47192  eV     1   --> A_1  D_1  S_1  
     e( 23 - 23) =     -6.34485  eV     1   --> B_1  D_3  S_3  
     e( 24 - 24) =     -6.23362  eV     1   --> B_1  D_3  S_3  
     e( 25 - 25) =     -1.37961  eV     1   --> A_1  D_1  S_1  
     e( 26 - 26) =     -1.12851  eV     1   --> B_1  D_3  S_3  
     e( 27 - 27) =     -0.83786  eV     1   --> A_1  D_1  S_1  
     e( 28 - 28) =     -0.83232  eV     1   --> B_2  D_4  S_4  
     e( 29 - 29) =     -0.82290  eV     1   --> B_1  D_3  S_3  
     e( 30 - 30) =     -0.81947  eV     1   --> A_2  D_2  S_2  
     e( 31 - 31) =      5.52634  eV     1   --> A_1  D_1  S_1  
     e( 32 - 32) =      5.75726  eV     1   --> B_1  D_3  S_3  
     e( 33 - 33) =      5.77459  eV     1   --> A_2  D_2  S_2  
     e( 34 - 34) =      5.92073  eV     1   --> A_1  D_1  S_1  
     e( 35 - 35) =      6.06888  eV     1   --> A_1  D_1  S_1  
     e( 36 - 36) =      6.10615  eV     1   --> B_2  D_4  S_4  
     e( 37 - 37) =      6.92036  eV     1   --> B_1  D_3  S_3  
     e( 38 - 38) =      6.98710  eV     1   --> A_1  D_1  S_1  
     e( 39 - 39) =      7.39287  eV     1   --> B_1  D_3  S_3  
     e( 40 - 40) =      7.39501  eV     1   --> A_2  D_2  S_2  
     e( 41 - 41) =      7.86009  eV     1   --> B_1  D_3  S_3  
     e( 42 - 42) =      7.95035  eV     1   --> B_2  D_4  S_4  
     e( 43 - 43) =      7.97726  eV     1   --> A_2  D_2  S_2  
     e( 44 - 44) =      8.02643  eV     1   --> A_1  D_1  S_1  
     e( 45 - 45) =      8.14483  eV     1   --> B_1  D_3  S_3  
     e( 46 - 46) =      8.24907  eV     1   --> B_2  D_4  S_4  
     e( 47 - 47) =      8.25847  eV     1   --> A_1  D_1  S_1  
     e( 48 - 48) =      8.30040  eV     1   --> A_2  D_2  S_2  
     e( 49 - 49) =      8.39342  eV     1   --> B_1  D_3  S_3  
     e( 50 - 50) =      8.41029  eV     1   --> A_1  D_1  S_1  
     e( 51 - 51) =      8.56670  eV     1   --> A_1  D_1  S_1  
     e( 52 - 52) =      8.59871  eV     1   --> B_2  D_4  S_4  
     e( 53 - 53) =      8.67833  eV     1   --> B_2  D_4  S_4  
     e( 54 - 54) =      8.80731  eV     1   --> B_1  D_3  S_3  
     e( 55 - 55) =      8.88648  eV     1   --> A_2  D_2  S_2  
     e( 56 - 56) =      8.91389  eV     1   --> A_1  D_1  S_1  
     e( 57 - 57) =      9.05295  eV     1   --> A_1  D_1  S_1  
     e( 58 - 58) =      9.30554  eV     1   --> B_2  D_4  S_4  
     e( 59 - 59) =      9.42950  eV     1   --> A_1  D_1  S_1  
     e( 60 - 60) =      9.51566  eV     1   --> B_1  D_3  S_3  
     e( 61 - 61) =      9.62441  eV     1   --> B_1  D_3  S_3  
     e( 62 - 62) =     10.13946  eV     1   --> B_1  D_3  S_3  
     e( 63 - 63) =     10.14089  eV     1   --> A_2  D_2  S_2  
     e( 64 - 64) =     12.72145  eV     1   --> A_1  D_1  S_1  
     e( 65 - 65) =     13.45373  eV     1   --> A_1  D_1  S_1  
     e( 66 - 66) =     13.57804  eV     1   --> A_1  D_1  S_1  
     e( 67 - 67) =     13.78833  eV     1   --> B_1  D_3  S_3  
     e( 68 - 68) =     14.81673  eV     1   --> A_1  D_1  S_1  
     e( 69 - 69) =     15.41910  eV     1   --> B_1  D_3  S_3  
     e( 70 - 70) =     15.51583  eV     1   --> A_1  D_1  S_1  
     e( 71 - 71) =     15.58591  eV     1   --> B_2  D_4  S_4  
     e( 72 - 72) =     15.69990  eV     1   --> B_2  D_4  S_4  
     e( 73 - 73) =     16.15779  eV     1   --> A_1  D_1  S_1  
     e( 74 - 74) =     16.44893  eV     1   --> B_1  D_3  S_3  
     e( 75 - 75) =     17.05239  eV     1   --> B_1  D_3  S_3  
     e( 76 - 76) =     17.10138  eV     1   --> A_2  D_2  S_2  
     e( 77 - 77) =     17.53629  eV     1   --> A_1  D_1  S_1  
     e( 78 - 78) =     17.85203  eV     1   --> B_2  D_4  S_4  
     e( 79 - 79) =     17.90009  eV     1   --> A_2  D_2  S_2  
     e( 80 - 80) =     17.92492  eV     1   --> B_1  D_3  S_3  
     e( 81 - 81) =     18.66064  eV     1   --> B_1  D_3  S_3  
     e( 82 - 82) =     18.75321  eV     1   --> A_2  D_2  S_2  
     e( 83 - 83) =     18.91027  eV     1   --> A_1  D_1  S_1  
     e( 84 - 84) =     19.07454  eV     1   --> A_1  D_1  S_1  
     e( 85 - 85) =     19.47601  eV     1   --> B_1  D_3  S_3  
     e( 86 - 86) =     19.53909  eV     1   --> A_1  D_1  S_1  
     e( 87 - 87) =     19.58398  eV     1   --> B_2  D_4  S_4  
     e( 88 - 88) =     19.97787  eV     1   --> B_1  D_3  S_3  
     e( 89 - 89) =     20.01367  eV     1   --> B_2  D_4  S_4  
     e( 90 - 90) =     20.06470  eV     1   --> A_2  D_2  S_2  
     e( 91 - 91) =     20.24652  eV     1   --> A_1  D_1  S_1  
     e( 92 - 92) =     20.31285  eV     1   --> B_1  D_3  S_3  
     e( 93 - 93) =     20.31957  eV     1   --> A_2  D_2  S_2  
     e( 94 - 94) =     20.54455  eV     1   --> A_1  D_1  S_1  

 **************************************************************************

 **************************************************************************

                    xk=(   0.07500,   0.00000,   0.00000  )

     Band symmetry, C_2v (mm2)  point group:

     e(  1 -  2) =   -101.70528  eV     2   --> A_1  D_1  S_1  
     e(  1 -  2) =   -101.70528  eV     2   --> B_1  D_3  S_3  
     e(  3 -  3) =   -101.28868  eV     1   --> A_1  D_1  S_1  
     e(  4 -  5) =    -59.23228  eV     2   --> A_2  D_2  S_2  
     e(  4 -  5) =    -59.23228  eV     2   --> B_2  D_4  S_4  
     e(  6 -  7) =    -59.22810  eV     2   --> A_1  D_1  S_1  
     e(  6 -  7) =    -59.22810  eV     2   --> B_1  D_3  S_3  
     e(  8 -  8) =    -58.83514  eV     1   --> A_1  D_1  S_1  
     e(  9 -  9) =    -58.83437  eV     1   --> B_1  D_3  S_3  
     e( 10 - 10) =    -58.82366  eV     1   --> B_1  D_3  S_3  
     e( 11 - 11) =    -58.62355  eV     1   --> B_2  D_4  S_4  
     e( 12 - 12) =    -58.62344  eV     1   --> A_1  D_1  S_1  
     e( 13 - 13) =    -30.61830  eV     1   --> A_1  D_1  S_1  
     e( 14 - 14) =    -15.92984  eV     1   --> A_1  D_1  S_1  
     e( 15 - 15) =    -15.91758  eV     1   --> B_1  D_3  S_3  
     e( 16 - 16) =    -11.07410  eV     1   --> B_1  D_3  S_3  
     e( 17 - 17) =    -10.62888  eV     1   --> A_1  D_1  S_1  
     e( 18 - 18) =    -10.59180  eV     1   --> B_2  D_4  S_4  
     e( 19 - 19) =     -7.62009  eV     1   --> A_1  D_1  S_1  
     e( 20 - 20) =     -6.78956  eV     1   --> B_1  D_3  S_3  
     e( 21 - 21) =     -6.60883  eV     1   --> A_1  D_1  S_1  
     e( 22 - 22) =     -6.46788  eV     1   --> A_1  D_1  S_1  
     e( 23 - 23) =     -6.35424  eV     1   --> B_1  D_3  S_3  
     e( 24 - 24) =     -6.24087  eV     1   --> B_1  D_3  S_3  
     e( 25 - 25) =     -1.37831  eV     1   --> A_1  D_1  S_1  
     e( 26 - 26) =     -1.12970  eV     1   --> B_1  D_3  S_3  
     e( 27 - 27) =     -0.84021  eV     1   --> A_1  D_1  S_1  
     e( 28 - 28) =     -0.82645  eV     1   --> B_2  D_4  S_4  
     e( 29 - 29) =     -0.82263  eV     1   --> B_1  D_3  S_3  
     e( 30 - 30) =     -0.81350  eV     1   --> A_2  D_2  S_2  
     e( 31 - 31) =      5.51508  eV     1   --> A_1  D_1  S_1  
     e( 32 - 32) =      5.73927  eV     1   --> B_1  D_3  S_3  
     e( 33 - 33) =      5.78389  eV     1   --> A_2  D_2  S_2  
     e( 34 - 34) =      5.91385  eV     1   --> A_1  D_1  S_1  
     e( 35 - 35) =      6.04820  eV     1   --> A_1  D_1  S_1  
     e( 36 - 36) =      6.10918  eV     1   --> B_2  D_4  S_4  
     e( 37 - 37) =      6.91083  eV     1   --> B_1  D_3  S_3  
     e( 38 - 38) =      6.98483  eV     1   --> A_1  D_1  S_1  
     e( 39 - 39) =      7.37325  eV     1   --> B_1  D_3  S_3  
     e( 40 - 40) =      7.37825  eV     1   --> A_2  D_2  S_2  
     e( 41 - 41) =      7.80989  eV     1   --> B_1  D_3  S_3  
     e( 42 - 42) =      7.89521  eV     1   --> B_2  D_4  S_4  
     e( 43 - 43) =      7.91462  eV     1   --> A_2  D_2  S_2  
     e( 44 - 44) =      8.02054  eV     1   --> A_1  D_1  S_1  
     e( 45 - 45) =      8.13079  eV     1   --> B_1  D_3  S_3  
     e( 46 - 46) =      8.23965  eV     1   --> B_2  D_4  S_4  
     e( 47 - 47) =      8.25711  eV     1   --> A_1  D_1  S_1  
     e( 48 - 48) =      8.34041  eV     1   --> A_2  D_2  S_2  
     e( 49 - 49) =      8.40504  eV     1   --> A_1  D_1  S_1  
     e( 50 - 50) =      8.47606  eV     1   --> B_1  D_3  S_3  
     e( 51 - 51) =      8.56243  eV     1   --> A_1  D_1  S_1  
     e( 52 - 52) =      8.61394  eV     1   --> B_2  D_4  S_4  
     e( 53 - 53) =      8.67646  eV     1   --> B_2  D_4  S_4  
     e( 54 - 54) =      8.71743  eV     1   --> B_1  D_3  S_3  
     e( 55 - 55) =      8.90053  eV     1   --> A_2  D_2  S_2  
     e( 56 - 56) =      8.91642  eV     1   --> A_1  D_1  S_1  
     e( 57 - 57) =      8.97291  eV     1   --> A_1  D_1  S_1  
     e( 58 - 58) =      9.31674  eV     1   --> B_2  D_4  S_4  
     e( 59 - 59) =      9.50605  eV     1   --> A_1  D_1  S_1  
     e( 60 - 60) =      9.52307  eV     1   --> B_1  D_3  S_3  
     e( 61 - 61) =      9.71813  eV     1   --> B_1  D_3  S_3  
     e( 62 - 62) =     10.12267  eV     1   --> B_1  D_3  S_3  
     e( 63 - 63) =     10.12669  eV     1   --> A_2  D_2  S_2  
     e( 64 - 64) =     12.76468  eV     1   --> A_1  D_1  S_1  
     e( 65 - 65) =     13.50545  eV     1   --> A_1  D_1  S_1  
     e( 66 - 66) =     13.58666  eV     1   --> A_1  D_1  S_1  
     e( 67 - 67) =     13.84554  eV     1   --> B_1  D_3  S_3  
     e( 68 - 68) =     14.83198  eV     1   --> A_1  D_1  S_1  
     e( 69 - 69) =     15.46949  eV     1   --> A_1  D_1  S_1  
     e( 70 - 70) =     15.48563  eV     1   --> B_1  D_3  S_3  
     e( 71 - 71) =     15.60575  eV     1   --> B_2  D_4  S_4  
     e( 72 - 72) =     15.69535  eV     1   --> B_2  D_4  S_4  
     e( 73 - 73) =     16.22223  eV     1   --> A_1  D_1  S_1  
     e( 74 - 74) =     16.46832  eV     1   --> B_1  D_3  S_3  
     e( 75 - 75) =     17.00620  eV     1   --> B_1  D_3  S_3  
     e( 76 - 76) =     17.09650  eV     1   --> A_2  D_2  S_2  
     e( 77 - 77) =     17.57335  eV     1   --> A_1  D_1  S_1  
     e( 78 - 78) =     17.88987  eV     1   --> B_2  D_4  S_4  
     e( 79 - 79) =     17.95577  eV     1   --> A_2  D_2  S_2  
     e( 80 - 80) =     18.01443  eV     1   --> B_1  D_3  S_3  
     e( 81 - 81) =     18.61301  eV     1   --> B_1  D_3  S_3  
     e( 82 - 82) =     18.75040  eV     1   --> A_2  D_2  S_2  
     e( 83 - 83) =     18.83564  eV     1   --> A_1  D_1  S_1  
     e( 84 - 84) =     19.10706  eV     1   --> A_1  D_1  S_1  
     e( 85 - 85) =     19.49567  eV     1   --> A_1  D_1  S_1  
     e( 86 - 86) =     19.51677  eV     1   --> B_1  D_3  S_3  
     e( 87 - 87) =     19.59503  eV     1   --> B_2  D_4  S_4  
     e( 88 - 88) =     19.98776  eV     1   --> B_2  D_4  S_4  
     e( 89 - 89) =     19.98834  eV     1   --> B_1  D_3  S_3  
     e( 90 - 90) =     20.04887  eV     1   --> A_2  D_2  S_2  
     e( 91 - 91) =     20.23723  eV     1   --> A_1  D_1  S_1  
     e( 92 - 92) =     20.30050  eV     1   --> B_1  D_3  S_3  
     e( 93 - 93) =     20.31968  eV     1   --> A_2  D_2  S_2  
     e( 94 - 94) =     20.52199  eV     1   --> A_1  D_1  S_1  

 **************************************************************************

 **************************************************************************

                    xk=(   0.10000,   0.00000,   0.00000  )

     Band symmetry, C_2v (mm2)  point group:

     e(  1 -  2) =   -101.70528  eV     2   --> A_1  D_1  S_1  
     e(  1 -  2) =   -101.70528  eV     2   --> B_1  D_3  S_3  
     e(  3 -  3) =   -101.28868  eV     1   --> A_1  D_1  S_1  
     e(  4 -  5) =    -59.23227  eV     2   --> A_2  D_2  S_2  
     e(  4 -  5) =    -59.23227  eV     2   --> B_2  D_4  S_4  
     e(  6 -  7) =    -59.22810  eV     2   --> A_1  D_1  S_1  
     e(  6 -  7) =    -59.22810  eV     2   --> B_1  D_3  S_3  
     e(  8 -  8) =    -58.83514  eV     1   --> A_1  D_1  S_1  
     e(  9 -  9) =    -58.83437  eV     1   --> B_1  D_3  S_3  
     e( 10 - 10) =    -58.82366  eV     1   --> B_1  D_3  S_3  
     e( 11 - 11) =    -58.62355  eV     1   --> B_2  D_4  S_4  
     e( 12 - 12) =    -58.62344  eV     1   --> A_1  D_1  S_1  
     e( 13 - 13) =    -30.61781  eV     1   --> A_1  D_1  S_1  
     e( 14 - 14) =    -15.92539  eV     1   --> A_1  D_1  S_1  
     e( 15 - 15) =    -15.91319  eV     1   --> B_1  D_3  S_3  
     e( 16 - 16) =    -11.06589  eV     1   --> B_1  D_3  S_3  
     e( 17 - 17) =    -10.65275  eV     1   --> A_1  D_1  S_1  
     e( 18 - 18) =    -10.59110  eV     1   --> B_2  D_4  S_4  
     e( 19 - 19) =     -7.59145  eV     1   --> A_1  D_1  S_1  
     e( 20 - 20) =     -6.79210  eV     1   --> B_1  D_3  S_3  
     e( 21 - 21) =     -6.62208  eV     1   --> A_1  D_1  S_1  
     e( 22 - 22) =     -6.46238  eV     1   --> A_1  D_1  S_1  
     e( 23 - 23) =     -6.36705  eV     1   --> B_1  D_3  S_3  
     e( 24 - 24) =     -6.25019  eV     1   --> B_1  D_3  S_3  
     e( 25 - 25) =     -1.37649  eV     1   --> A_1  D_1  S_1  
     e( 26 - 26) =     -1.13120  eV     1   --> B_1  D_3  S_3  
     e( 27 - 27) =     -0.84336  eV     1   --> A_1  D_1  S_1  
     e( 28 - 28) =     -0.82232  eV     1   --> B_1  D_3  S_3  
     e( 29 - 29) =     -0.81839  eV     1   --> B_2  D_4  S_4  
     e( 30 - 30) =     -0.80531  eV     1   --> A_2  D_2  S_2  
     e( 31 - 31) =      5.49797  eV     1   --> A_1  D_1  S_1  
     e( 32 - 32) =      5.71341  eV     1   --> B_1  D_3  S_3  
     e( 33 - 33) =      5.79684  eV     1   --> A_2  D_2  S_2  
     e( 34 - 34) =      5.89212  eV     1   --> A_1  D_1  S_1  
     e( 35 - 35) =      6.03602  eV     1   --> A_1  D_1  S_1  
     e( 36 - 36) =      6.11350  eV     1   --> B_2  D_4  S_4  
     e( 37 - 37) =      6.89718  eV     1   --> B_1  D_3  S_3  
     e( 38 - 38) =      6.97900  eV     1   --> A_1  D_1  S_1  
     e( 39 - 39) =      7.34679  eV     1   --> B_1  D_3  S_3  
     e( 40 - 40) =      7.35509  eV     1   --> A_2  D_2  S_2  
     e( 41 - 41) =      7.75838  eV     1   --> B_1  D_3  S_3  
     e( 42 - 42) =      7.82922  eV     1   --> B_2  D_4  S_4  
     e( 43 - 43) =      7.84544  eV     1   --> A_2  D_2  S_2  
     e( 44 - 44) =      8.01621  eV     1   --> A_1  D_1  S_1  
     e( 45 - 45) =      8.12680  eV     1   --> B_1  D_3  S_3  
     e( 46 - 46) =      8.21908  eV     1   --> B_2  D_4  S_4  
     e( 47 - 47) =      8.24130  eV     1   --> A_1  D_1  S_1  
     e( 48 - 48) =      8.37827  eV     1   --> A_2  D_2  S_2  
     e( 49 - 49) =      8.40623  eV     1   --> A_1  D_1  S_1  
     e( 50 - 50) =      8.49836  eV     1   --> B_1  D_3  S_3  
     e( 51 - 51) =      8.56261  eV     1   --> A_1  D_1  S_1  
     e( 52 - 52) =      8.63248  eV     1   --> B_2  D_4  S_4  
     e( 53 - 53) =      8.67373  eV     1   --> B_2  D_4  S_4  
     e( 54 - 54) =      8.68530  eV     1   --> B_1  D_3  S_3  
     e( 55 - 55) =      8.87016  eV     1   --> A_1  D_1  S_1  
     e( 56 - 56) =      8.91997  eV     1   --> A_2  D_2  S_2  
     e( 57 - 57) =      8.94237  eV     1   --> A_1  D_1  S_1  
     e( 58 - 58) =      9.33300  eV     1   --> B_2  D_4  S_4  
     e( 59 - 59) =      9.52801  eV     1   --> B_1  D_3  S_3  
     e( 60 - 60) =      9.58047  eV     1   --> A_1  D_1  S_1  
     e( 61 - 61) =      9.81798  eV     1   --> B_1  D_3  S_3  
     e( 62 - 62) =     10.10256  eV     1   --> B_1  D_3  S_3  
     e( 63 - 63) =     10.10779  eV     1   --> A_2  D_2  S_2  
     e( 64 - 64) =     12.81581  eV     1   --> A_1  D_1  S_1  
     e( 65 - 65) =     13.55666  eV     1   --> A_1  D_1  S_1  
     e( 66 - 66) =     13.62279  eV     1   --> A_1  D_1  S_1  
     e( 67 - 67) =     13.92499  eV     1   --> B_1  D_3  S_3  
     e( 68 - 68) =     14.83954  eV     1   --> A_1  D_1  S_1  
     e( 69 - 69) =     15.43820  eV     1   --> A_1  D_1  S_1  
     e( 70 - 70) =     15.57635  eV     1   --> B_1  D_3  S_3  
     e( 71 - 71) =     15.62889  eV     1   --> B_2  D_4  S_4  
     e( 72 - 72) =     15.69397  eV     1   --> B_2  D_4  S_4  
     e( 73 - 73) =     16.30127  eV     1   --> A_1  D_1  S_1  
     e( 74 - 74) =     16.49380  eV     1   --> B_1  D_3  S_3  
     e( 75 - 75) =     16.95433  eV     1   --> B_1  D_3  S_3  
     e( 76 - 76) =     17.09265  eV     1   --> A_2  D_2  S_2  
     e( 77 - 77) =     17.61167  eV     1   --> A_1  D_1  S_1  
     e( 78 - 78) =     17.94091  eV     1   --> B_2  D_4  S_4  
     e( 79 - 79) =     18.02824  eV     1   --> A_2  D_2  S_2  
     e( 80 - 80) =     18.12421  eV     1   --> B_1  D_3  S_3  
     e( 81 - 81) =     18.56002  eV     1   --> B_1  D_3  S_3  
     e( 82 - 82) =     18.72649  eV     1   --> A_1  D_1  S_1  
     e( 83 - 83) =     18.74668  eV     1   --> A_2  D_2  S_2  
     e( 84 - 84) =     19.16162  eV     1   --> A_1  D_1  S_1  
     e( 85 - 85) =     19.44964  eV     1   --> A_1  D_1  S_1  
     e( 86 - 86) =     19.56414  eV     1   --> B_1  D_3  S_3  
     e( 87 - 87) =     19.60704  eV     1   --> B_2  D_4  S_4  
     e( 88 - 88) =     19.95500  eV     1   --> B_2  D_4  S_4  
     e( 89 - 89) =     20.00188  eV     1   --> B_1  D_3  S_3  
     e( 90 - 90) =     20.02809  eV     1   --> A_2  D_2  S_2  
     e( 91 - 91) =     20.21907  eV     1   --> A_1  D_1  S_1  
     e( 92 - 92) =     20.28440  eV     1   --> B_1  D_3  S_3  
     e( 93 - 93) =     20.31978  eV     1   --> A_2  D_2  S_2  
     e( 94 - 94) =     20.49293  eV     1   --> A_1  D_1  S_1  

 **************************************************************************

 **************************************************************************

                    xk=(   0.12500,   0.00000,   0.00000  )

     Band symmetry, C_2v (mm2)  point group:

     e(  1 -  2) =   -101.70528  eV     2   --> A_1  D_1  S_1  
     e(  1 -  2) =   -101.70528  eV     2   --> B_1  D_3  S_3  
     e(  3 -  3) =   -101.28868  eV     1   --> A_1  D_1  S_1  
     e(  4 -  5) =    -59.23227  eV     2   --> A_2  D_2  S_2  
     e(  4 -  5) =    -59.23227  eV     2   --> B_2  D_4  S_4  
     e(  6 -  7) =    -59.22811  eV     2   --> A_1  D_1  S_1  
     e(  6 -  7) =    -59.22811  eV     2   --> B_1  D_3  S_3  
     e(  8 -  8) =    -58.83514  eV     1   --> A_1  D_1  S_1  
     e(  9 -  9) =    -58.83437  eV     1   --> B_1  D_3  S_3  
     e( 10 - 10) =    -58.82366  eV     1   --> B_1  D_3  S_3  
     e( 11 - 11) =    -58.62355  eV     1   --> B_2  D_4  S_4  
     e( 12 - 12) =    -58.62345  eV     1   --> A_1  D_1  S_1  
     e( 13 - 13) =    -30.61719  eV     1   --> A_1  D_1  S_1  
     e( 14 - 14) =    -15.91984  eV     1   --> A_1  D_1  S_1  
     e( 15 - 15) =    -15.90773  eV     1   --> B_1  D_3  S_3  
     e( 16 - 16) =    -11.05561  eV     1   --> B_1  D_3  S_3  
     e( 17 - 17) =    -10.68187  eV     1   --> A_1  D_1  S_1  
     e( 18 - 18) =    -10.59022  eV     1   --> B_2  D_4  S_4  
     e( 19 - 19) =     -7.55609  eV     1   --> A_1  D_1  S_1  
     e( 20 - 20) =     -6.79627  eV     1   --> B_1  D_3  S_3  
     e( 21 - 21) =     -6.63875  eV     1   --> A_1  D_1  S_1  
     e( 22 - 22) =     -6.45564  eV     1   --> A_1  D_1  S_1  
     e( 23 - 23) =     -6.38283  eV     1   --> B_1  D_3  S_3  
     e( 24 - 24) =     -6.26088  eV     1   --> B_1  D_3  S_3  
     e( 25 - 25) =     -1.37415  eV     1   --> A_1  D_1  S_1  
     e( 26 - 26) =     -1.13282  eV     1   --> B_1  D_3  S_3  
     e( 27 - 27) =     -0.84718  eV     1   --> A_1  D_1  S_1  
     e( 28 - 28) =     -0.82203  eV     1   --> B_1  D_3  S_3  
     e( 29 - 29) =     -0.80833  eV     1   --> B_2  D_4  S_4  
     e( 30 - 30) =     -0.79509  eV     1   --> A_2  D_2  S_2  
     e( 31 - 31) =      5.47354  eV     1   --> A_1  D_1  S_1  
     e( 32 - 32) =      5.67930  eV     1   --> B_1  D_3  S_3  
     e( 33 - 33) =      5.81339  eV     1   --> A_2  D_2  S_2  
     e( 34 - 34) =      5.85374  eV     1   --> A_1  D_1  S_1  
     e( 35 - 35) =      6.03788  eV     1   --> A_1  D_1  S_1  
     e( 36 - 36) =      6.11916  eV     1   --> B_2  D_4  S_4  
     e( 37 - 37) =      6.87927  eV     1   --> B_1  D_3  S_3  
     e( 38 - 38) =      6.96881  eV     1   --> A_1  D_1  S_1  
     e( 39 - 39) =      7.31442  eV     1   --> B_1  D_3  S_3  
     e( 40 - 40) =      7.32589  eV     1   --> A_2  D_2  S_2  
     e( 41 - 41) =      7.71276  eV     1   --> B_1  D_3  S_3  
     e( 42 - 42) =      7.75635  eV     1   --> B_2  D_4  S_4  
     e( 43 - 43) =      7.77268  eV     1   --> A_2  D_2  S_2  
     e( 44 - 44) =      8.01339  eV     1   --> A_1  D_1  S_1  
     e( 45 - 45) =      8.12742  eV     1   --> B_1  D_3  S_3  
     e( 46 - 46) =      8.18708  eV     1   --> B_2  D_4  S_4  
     e( 47 - 47) =      8.20903  eV     1   --> A_1  D_1  S_1  
     e( 48 - 48) =      8.41163  eV     1   --> A_2  D_2  S_2  
     e( 49 - 49) =      8.41613  eV     1   --> A_1  D_1  S_1  
     e( 50 - 50) =      8.42041  eV     1   --> B_1  D_3  S_3  
     e( 51 - 51) =      8.56779  eV     1   --> A_1  D_1  S_1  
     e( 52 - 52) =      8.65198  eV     1   --> B_2  D_4  S_4  
     e( 53 - 53) =      8.67015  eV     1   --> B_2  D_4  S_4  
     e( 54 - 54) =      8.75693  eV     1   --> B_1  D_3  S_3  
     e( 55 - 55) =      8.78964  eV     1   --> A_1  D_1  S_1  
     e( 56 - 56) =      8.94433  eV     1   --> A_2  D_2  S_2  
     e( 57 - 57) =      8.95082  eV     1   --> A_1  D_1  S_1  
     e( 58 - 58) =      9.35446  eV     1   --> B_2  D_4  S_4  
     e( 59 - 59) =      9.53253  eV     1   --> B_1  D_3  S_3  
     e( 60 - 60) =      9.65048  eV     1   --> A_1  D_1  S_1  
     e( 61 - 61) =      9.90791  eV     1   --> B_1  D_3  S_3  
     e( 62 - 62) =     10.08506  eV     1   --> A_2  D_2  S_2  
     e( 63 - 63) =     10.08622  eV     1   --> B_1  D_3  S_3  
     e( 64 - 64) =     12.86461  eV     1   --> A_1  D_1  S_1  
     e( 65 - 65) =     13.58987  eV     1   --> A_1  D_1  S_1  
     e( 66 - 66) =     13.70802  eV     1   --> A_1  D_1  S_1  
     e( 67 - 67) =     14.02598  eV     1   --> B_1  D_3  S_3  
     e( 68 - 68) =     14.83030  eV     1   --> A_1  D_1  S_1  
     e( 69 - 69) =     15.43908  eV     1   --> A_1  D_1  S_1  
     e( 70 - 70) =     15.64181  eV     1   --> B_2  D_4  S_4  
     e( 71 - 71) =     15.68869  eV     1   --> B_1  D_3  S_3  
     e( 72 - 72) =     15.70956  eV     1   --> B_2  D_4  S_4  
     e( 73 - 73) =     16.39161  eV     1   --> A_1  D_1  S_1  
     e( 74 - 74) =     16.52436  eV     1   --> B_1  D_3  S_3  
     e( 75 - 75) =     16.90097  eV     1   --> B_1  D_3  S_3  
     e( 76 - 76) =     17.09138  eV     1   --> A_2  D_2  S_2  
     e( 77 - 77) =     17.64374  eV     1   --> A_1  D_1  S_1  
     e( 78 - 78) =     18.00335  eV     1   --> B_2  D_4  S_4  
     e( 79 - 79) =     18.11347  eV     1   --> A_2  D_2  S_2  
     e( 80 - 80) =     18.24754  eV     1   --> B_1  D_3  S_3  
     e( 81 - 81) =     18.50854  eV     1   --> B_1  D_3  S_3  
     e( 82 - 82) =     18.59289  eV     1   --> A_1  D_1  S_1  
     e( 83 - 83) =     18.74227  eV     1   --> A_2  D_2  S_2  
     e( 84 - 84) =     19.23260  eV     1   --> A_1  D_1  S_1  
     e( 85 - 85) =     19.40710  eV     1   --> A_1  D_1  S_1  
     e( 86 - 86) =     19.61455  eV     1   --> B_1  D_3  S_3  
     e( 87 - 87) =     19.61486  eV     1   --> B_2  D_4  S_4  
     e( 88 - 88) =     19.92040  eV     1   --> B_2  D_4  S_4  
     e( 89 - 89) =     20.00363  eV     1   --> A_2  D_2  S_2  
     e( 90 - 90) =     20.01640  eV     1   --> B_1  D_3  S_3  
     e( 91 - 91) =     20.19263  eV     1   --> A_1  D_1  S_1  
     e( 92 - 92) =     20.26657  eV     1   --> B_1  D_3  S_3  
     e( 93 - 93) =     20.31984  eV     1   --> A_2  D_2  S_2  
     e( 94 - 94) =     20.46051  eV     1   --> A_1  D_1  S_1  

 **************************************************************************

 **************************************************************************

                    xk=(   0.15000,   0.00000,   0.00000  )

     Band symmetry, C_2v (mm2)  point group:

     e(  1 -  2) =   -101.70528  eV     2   --> A_1  D_1  S_1  
     e(  1 -  2) =   -101.70528  eV     2   --> B_1  D_3  S_3  
     e(  3 -  3) =   -101.28868  eV     1   --> A_1  D_1  S_1  
     e(  4 -  5) =    -59.23227  eV     2   --> A_2  D_2  S_2  
     e(  4 -  5) =    -59.23227  eV     2   --> B_2  D_4  S_4  
     e(  6 -  7) =    -59.22811  eV     2   --> A_1  D_1  S_1  
     e(  6 -  7) =    -59.22811  eV     2   --> B_1  D_3  S_3  
     e(  8 -  8) =    -58.83514  eV     1   --> A_1  D_1  S_1  
     e(  9 -  9) =    -58.83437  eV     1   --> B_1  D_3  S_3  
     e( 10 - 10) =    -58.82366  eV     1   --> B_1  D_3  S_3  
     e( 11 - 12) =    -58.62355  eV     2   --> A_1  D_1  S_1  
     e( 11 - 12) =    -58.62355  eV     2   --> B_2  D_4  S_4  
     e( 13 - 13) =    -30.61647  eV     1   --> A_1  D_1  S_1  
     e( 14 - 14) =    -15.91332  eV     1   --> A_1  D_1  S_1  
     e( 15 - 15) =    -15.90132  eV     1   --> B_1  D_3  S_3  
     e( 16 - 16) =    -11.04347  eV     1   --> B_1  D_3  S_3  
     e( 17 - 17) =    -10.71525  eV     1   --> A_1  D_1  S_1  
     e( 18 - 18) =    -10.58919  eV     1   --> B_2  D_4  S_4  
     e( 19 - 19) =     -7.51495  eV     1   --> A_1  D_1  S_1  
     e( 20 - 20) =     -6.80270  eV     1   --> B_1  D_3  S_3  
     e( 21 - 21) =     -6.65849  eV     1   --> A_1  D_1  S_1  
     e( 22 - 22) =     -6.44801  eV     1   --> A_1  D_1  S_1  
     e( 23 - 23) =     -6.40096  eV     1   --> B_1  D_3  S_3  
     e( 24 - 24) =     -6.27221  eV     1   --> B_1  D_3  S_3  
     e( 25 - 25) =     -1.37131  eV     1   --> A_1  D_1  S_1  
     e( 26 - 26) =     -1.13439  eV     1   --> B_1  D_3  S_3  
     e( 27 - 27) =     -0.85153  eV     1   --> A_1  D_1  S_1  
     e( 28 - 28) =     -0.82183  eV     1   --> B_1  D_3  S_3  
     e( 29 - 29) =     -0.79647  eV     1   --> B_2  D_4  S_4  
     e( 30 - 30) =     -0.78304  eV     1   --> A_2  D_2  S_2  
     e( 31 - 31) =      5.43993  eV     1   --> A_1  D_1  S_1  
     e( 32 - 32) =      5.63680  eV     1   --> B_1  D_3  S_3  
     e( 33 - 33) =      5.80695  eV     1   --> A_1  D_1  S_1  
     e( 34 - 34) =      5.83344  eV     1   --> A_2  D_2  S_2  
     e( 35 - 35) =      6.04929  eV     1   --> A_1  D_1  S_1  
     e( 36 - 36) =      6.12625  eV     1   --> B_2  D_4  S_4  
     e( 37 - 37) =      6.85709  eV     1   --> B_1  D_3  S_3  
     e( 38 - 38) =      6.95467  eV     1   --> A_1  D_1  S_1  
     e( 39 - 39) =      7.27734  eV     1   --> B_1  D_3  S_3  
     e( 40 - 40) =      7.29111  eV     1   --> A_2  D_2  S_2  
     e( 41 - 41) =      7.67658  eV     1   --> B_1  D_3  S_3  
     e( 42 - 42) =      7.67920  eV     1   --> B_2  D_4  S_4  
     e( 43 - 43) =      7.69793  eV     1   --> A_2  D_2  S_2  
     e( 44 - 44) =      8.00883  eV     1   --> A_1  D_1  S_1  
     e( 45 - 45) =      8.12901  eV     1   --> B_1  D_3  S_3  
     e( 46 - 46) =      8.14484  eV     1   --> B_2  D_4  S_4  
     e( 47 - 47) =      8.16714  eV     1   --> A_1  D_1  S_1  
     e( 48 - 48) =      8.32007  eV     1   --> B_1  D_3  S_3  
     e( 49 - 49) =      8.42844  eV     1   --> A_1  D_1  S_1  
     e( 50 - 50) =      8.43983  eV     1   --> A_2  D_2  S_2  
     e( 51 - 51) =      8.57637  eV     1   --> A_1  D_1  S_1  
     e( 52 - 52) =      8.66512  eV     1   --> B_2  D_4  S_4  
     e( 53 - 53) =      8.67122  eV     1   --> B_2  D_4  S_4  
     e( 54 - 54) =      8.71647  eV     1   --> A_1  D_1  S_1  
     e( 55 - 55) =      8.85813  eV     1   --> B_1  D_3  S_3  
     e( 56 - 56) =      8.96415  eV     1   --> A_1  D_1  S_1  
     e( 57 - 57) =      8.97284  eV     1   --> A_2  D_2  S_2  
     e( 58 - 58) =      9.38087  eV     1   --> B_2  D_4  S_4  
     e( 59 - 59) =      9.53695  eV     1   --> B_1  D_3  S_3  
     e( 60 - 60) =      9.71472  eV     1   --> A_1  D_1  S_1  
     e( 61 - 61) =      9.96047  eV     1   --> B_1  D_3  S_3  
     e( 62 - 62) =     10.05947  eV     1   --> A_2  D_2  S_2  
     e( 63 - 63) =     10.09768  eV     1   --> B_1  D_3  S_3  
     e( 64 - 64) =     12.89845  eV     1   --> A_1  D_1  S_1  
     e( 65 - 65) =     13.63256  eV     1   --> A_1  D_1  S_1  
     e( 66 - 66) =     13.81990  eV     1   --> A_1  D_1  S_1  
     e( 67 - 67) =     14.14745  eV     1   --> B_1  D_3  S_3  
     e( 68 - 68) =     14.80464  eV     1   --> A_1  D_1  S_1  
     e( 69 - 69) =     15.47756  eV     1   --> A_1  D_1  S_1  
     e( 70 - 70) =     15.63725  eV     1   --> B_2  D_4  S_4  
     e( 71 - 71) =     15.74966  eV     1   --> B_2  D_4  S_4  
     e( 72 - 72) =     15.81889  eV     1   --> B_1  D_3  S_3  
     e( 73 - 73) =     16.49044  eV     1   --> A_1  D_1  S_1  
     e( 74 - 74) =     16.55956  eV     1   --> B_1  D_3  S_3  
     e( 75 - 75) =     16.84858  eV     1   --> B_1  D_3  S_3  
     e( 76 - 76) =     17.09375  eV     1   --> A_2  D_2  S_2  
     e( 77 - 77) =     17.66530  eV     1   --> A_1  D_1  S_1  
     e( 78 - 78) =     18.07512  eV     1   --> B_2  D_4  S_4  
     e( 79 - 79) =     18.20729  eV     1   --> A_2  D_2  S_2  
     e( 80 - 80) =     18.37840  eV     1   --> B_1  D_3  S_3  
     e( 81 - 81) =     18.44544  eV     1   --> A_1  D_1  S_1  
     e( 82 - 82) =     18.46405  eV     1   --> B_1  D_3  S_3  
     e( 83 - 83) =     18.73747  eV     1   --> A_2  D_2  S_2  
     e( 84 - 84) =     19.29759  eV     1   --> A_1  D_1  S_1  
     e( 85 - 85) =     19.38726  eV     1   --> A_1  D_1  S_1  
     e( 86 - 86) =     19.60941  eV     1   --> B_2  D_4  S_4  
     e( 87 - 87) =     19.66658  eV     1   --> B_1  D_3  S_3  
     e( 88 - 88) =     19.89265  eV     1   --> B_2  D_4  S_4  
     e( 89 - 89) =     19.97699  eV     1   --> A_2  D_2  S_2  
     e( 90 - 90) =     20.02718  eV     1   --> B_1  D_3  S_3  
     e( 91 - 91) =     20.16071  eV     1   --> A_1  D_1  S_1  
     e( 92 - 92) =     20.25163  eV     1   --> B_1  D_3  S_3  
     e( 93 - 93) =     20.31984  eV     1   --> A_2  D_2  S_2  
     e( 94 - 94) =     20.42685  eV     1   --> A_1  D_1  S_1  

 **************************************************************************

 **************************************************************************

                    xk=(   0.17500,   0.00000,   0.00000  )

     Band symmetry, C_2v (mm2)  point group:

     e(  1 -  2) =   -101.70528  eV     2   --> A_1  D_1  S_1  
     e(  1 -  2) =   -101.70528  eV     2   --> B_1  D_3  S_3  
     e(  3 -  3) =   -101.28868  eV     1   --> A_1  D_1  S_1  
     e(  4 -  5) =    -59.23227  eV     2   --> A_2  D_2  S_2  
     e(  4 -  5) =    -59.23227  eV     2   --> B_2  D_4  S_4  
     e(  6 -  7) =    -59.22812  eV     2   --> A_1  D_1  S_1  
     e(  6 -  7) =    -59.22812  eV     2   --> B_1  D_3  S_3  
     e(  8 -  8) =    -58.83514  eV     1   --> A_1  D_1  S_1  
     e(  9 -  9) =    -58.83437  eV     1   --> B_1  D_3  S_3  
     e( 10 - 10) =    -58.82366  eV     1   --> B_1  D_3  S_3  
     e( 11 - 12) =    -58.62355  eV     2   --> A_1  D_1  S_1  
     e( 11 - 12) =    -58.62355  eV     2   --> B_2  D_4  S_4  
     e( 13 - 13) =    -30.61566  eV     1   --> A_1  D_1  S_1  
     e( 14 - 14) =    -15.90599  eV     1   --> A_1  D_1  S_1  
     e( 15 - 15) =    -15.89410  eV     1   --> B_1  D_3  S_3  
     e( 16 - 16) =    -11.02973  eV     1   --> B_1  D_3  S_3  
     e( 17 - 17) =    -10.75181  eV     1   --> A_1  D_1  S_1  
     e( 18 - 18) =    -10.58804  eV     1   --> B_2  D_4  S_4  
     e( 19 - 19) =     -7.46907  eV     1   --> A_1  D_1  S_1  
     e( 20 - 20) =     -6.81201  eV     1   --> B_1  D_3  S_3  
     e( 21 - 21) =     -6.68080  eV     1   --> A_1  D_1  S_1  
     e( 22 - 22) =     -6.43992  eV     1   --> A_1  D_1  S_1  
     e( 23 - 23) =     -6.42065  eV     1   --> B_1  D_3  S_3  
     e( 24 - 24) =     -6.28345  eV     1   --> B_1  D_3  S_3  
     e( 25 - 25) =     -1.36799  eV     1   --> A_1  D_1  S_1  
     e( 26 - 26) =     -1.13571  eV     1   --> B_1  D_3  S_3  
     e( 27 - 27) =     -0.85626  eV     1   --> A_1  D_1  S_1  
     e( 28 - 28) =     -0.82181  eV     1   --> B_1  D_3  S_3  
     e( 29 - 29) =     -0.78309  eV     1   --> B_2  D_4  S_4  
     e( 30 - 30) =     -0.76944  eV     1   --> A_2  D_2  S_2  
     e( 31 - 31) =      5.39550  eV     1   --> A_1  D_1  S_1  
     e( 32 - 32) =      5.58622  eV     1   --> B_1  D_3  S_3  
     e( 33 - 33) =      5.76033  eV     1   --> A_1  D_1  S_1  
     e( 34 - 34) =      5.85688  eV     1   --> A_2  D_2  S_2  
     e( 35 - 35) =      6.06485  eV     1   --> A_1  D_1  S_1  
     e( 36 - 36) =      6.13483  eV     1   --> B_2  D_4  S_4  
     e( 37 - 37) =      6.83086  eV     1   --> B_1  D_3  S_3  
     e( 38 - 38) =      6.93820  eV     1   --> A_1  D_1  S_1  
     e( 39 - 39) =      7.23700  eV     1   --> B_1  D_3  S_3  
     e( 40 - 40) =      7.25136  eV     1   --> A_2  D_2  S_2  
     e( 41 - 41) =      7.59965  eV     1   --> B_2  D_4  S_4  
     e( 42 - 42) =      7.62224  eV     1   --> A_2  D_2  S_2  
     e( 43 - 43) =      7.65095  eV     1   --> B_1  D_3  S_3  
     e( 44 - 44) =      7.99548  eV     1   --> A_1  D_1  S_1  
     e( 45 - 45) =      8.09413  eV     1   --> B_2  D_4  S_4  
     e( 46 - 46) =      8.12500  eV     1   --> A_1  D_1  S_1  
     e( 47 - 47) =      8.12637  eV     1   --> B_1  D_3  S_3  
     e( 48 - 48) =      8.22626  eV     1   --> B_1  D_3  S_3  
     e( 49 - 49) =      8.43081  eV     1   --> A_1  D_1  S_1  
     e( 50 - 50) =      8.46303  eV     1   --> A_2  D_2  S_2  
     e( 51 - 51) =      8.58410  eV     1   --> A_1  D_1  S_1  
     e( 52 - 52) =      8.66009  eV     1   --> B_2  D_4  S_4  
     e( 53 - 53) =      8.66901  eV     1   --> A_1  D_1  S_1  
     e( 54 - 54) =      8.68779  eV     1   --> B_2  D_4  S_4  
     e( 55 - 55) =      8.96520  eV     1   --> B_1  D_3  S_3  
     e( 56 - 56) =      8.98058  eV     1   --> A_1  D_1  S_1  
     e( 57 - 57) =      9.00448  eV     1   --> A_2  D_2  S_2  
     e( 58 - 58) =      9.41153  eV     1   --> B_2  D_4  S_4  
     e( 59 - 59) =      9.54123  eV     1   --> B_1  D_3  S_3  
     e( 60 - 60) =      9.77223  eV     1   --> A_1  D_1  S_1  
     e( 61 - 61) =      9.95712  eV     1   --> B_1  D_3  S_3  
     e( 62 - 62) =     10.03202  eV     1   --> A_2  D_2  S_2  
     e( 63 - 63) =     10.15431  eV     1   --> B_1  D_3  S_3  
     e( 64 - 64) =     12.90641  eV     1   --> A_1  D_1  S_1  
     e( 65 - 65) =     13.69886  eV     1   --> A_1  D_1  S_1  
     e( 66 - 66) =     13.94584  eV     1   --> A_1  D_1  S_1  
     e( 67 - 67) =     14.28798  eV     1   --> B_1  D_3  S_3  
     e( 68 - 68) =     14.77436  eV     1   --> A_1  D_1  S_1  
     e( 69 - 69) =     15.54684  eV     1   --> A_1  D_1  S_1  
     e( 70 - 70) =     15.62500  eV     1   --> B_2  D_4  S_4  
     e( 71 - 71) =     15.80468  eV     1   --> B_2  D_4  S_4  
     e( 72 - 72) =     15.96082  eV     1   --> B_1  D_3  S_3  
     e( 73 - 73) =     16.59405  eV     1   --> A_1  D_1  S_1  
     e( 74 - 74) =     16.60004  eV     1   --> B_1  D_3  S_3  
     e( 75 - 75) =     16.80003  eV     1   --> B_1  D_3  S_3  
     e( 76 - 76) =     17.10028  eV     1   --> A_2  D_2  S_2  
     e( 77 - 77) =     17.67632  eV     1   --> A_1  D_1  S_1  
     e( 78 - 78) =     18.15397  eV     1   --> B_2  D_4  S_4  
     e( 79 - 79) =     18.29387  eV     1   --> A_1  D_1  S_1  
     e( 80 - 80) =     18.30535  eV     1   --> A_2  D_2  S_2  
     e( 81 - 81) =     18.42149  eV     1   --> B_1  D_3  S_3  
     e( 82 - 82) =     18.51950  eV     1   --> B_1  D_3  S_3  
     e( 83 - 83) =     18.73274  eV     1   --> A_2  D_2  S_2  
     e( 84 - 84) =     19.28902  eV     1   --> A_1  D_1  S_1  
     e( 85 - 85) =     19.45177  eV     1   --> A_1  D_1  S_1  
     e( 86 - 86) =     19.58007  eV     1   --> B_2  D_4  S_4  
     e( 87 - 87) =     19.72025  eV     1   --> B_1  D_3  S_3  
     e( 88 - 88) =     19.88180  eV     1   --> B_2  D_4  S_4  
     e( 89 - 89) =     19.94998  eV     1   --> A_2  D_2  S_2  
     e( 90 - 90) =     20.02552  eV     1   --> B_1  D_3  S_3  
     e( 91 - 91) =     20.12702  eV     1   --> A_1  D_1  S_1  
     e( 92 - 92) =     20.24869  eV     1   --> B_1  D_3  S_3  
     e( 93 - 93) =     20.31977  eV     1   --> A_2  D_2  S_2  
     e( 94 - 94) =     20.39286  eV     1   --> A_1  D_1  S_1  

 **************************************************************************

 **************************************************************************

                    xk=(   0.20000,   0.00000,   0.00000  )

     Band symmetry, C_2v (mm2)  point group:

     e(  1 -  2) =   -101.70528  eV     2   --> A_1  D_1  S_1  
     e(  1 -  2) =   -101.70528  eV     2   --> B_1  D_3  S_3  
     e(  3 -  3) =   -101.28868  eV     1   --> A_1  D_1  S_1  
     e(  4 -  5) =    -59.23227  eV     2   --> A_2  D_2  S_2  
     e(  4 -  5) =    -59.23227  eV     2   --> B_2  D_4  S_4  
     e(  6 -  7) =    -59.22812  eV     2   --> A_1  D_1  S_1  
     e(  6 -  7) =    -59.22812  eV     2   --> B_1  D_3  S_3  
     e(  8 -  8) =    -58.83514  eV     1   --> A_1  D_1  S_1  
     e(  9 -  9) =    -58.83437  eV     1   --> B_1  D_3  S_3  
     e( 10 - 10) =    -58.82366  eV     1   --> B_1  D_3  S_3  
     e( 11 - 12) =    -58.62355  eV     2   --> A_1  D_1  S_1  
     e( 11 - 12) =    -58.62355  eV     2   --> B_2  D_4  S_4  
     e( 13 - 13) =    -30.61479  eV     1   --> A_1  D_1  S_1  
     e( 14 - 14) =    -15.89802  eV     1   --> A_1  D_1  S_1  
     e( 15 - 15) =    -15.88625  eV     1   --> B_1  D_3  S_3  
     e( 16 - 16) =    -11.01468  eV     1   --> B_1  D_3  S_3  
     e( 17 - 17) =    -10.79046  eV     1   --> A_1  D_1  S_1  
     e( 18 - 18) =    -10.58679  eV     1   --> B_2  D_4  S_4  
     e( 19 - 19) =     -7.41951  eV     1   --> A_1  D_1  S_1  
     e( 20 - 20) =     -6.82471  eV     1   --> B_1  D_3  S_3  
     e( 21 - 21) =     -6.70512  eV     1   --> A_1  D_1  S_1  
     e( 22 - 22) =     -6.44108  eV     1   --> B_1  D_3  S_3  
     e( 23 - 23) =     -6.43184  eV     1   --> A_1  D_1  S_1  
     e( 24 - 24) =     -6.29394  eV     1   --> B_1  D_3  S_3  
     e( 25 - 25) =     -1.36423  eV     1   --> A_1  D_1  S_1  
     e( 26 - 26) =     -1.13661  eV     1   --> B_1  D_3  S_3  
     e( 27 - 27) =     -0.86122  eV     1   --> A_1  D_1  S_1  
     e( 28 - 28) =     -0.82203  eV     1   --> B_1  D_3  S_3  
     e( 29 - 29) =     -0.76848  eV     1   --> B_2  D_4  S_4  
     e( 30 - 30) =     -0.75459  eV     1   --> A_2  D_2  S_2  
     e( 31 - 31) =      5.33993  eV     1   --> A_1  D_1  S_1  
     e( 32 - 32) =      5.52839  eV     1   --> B_1  D_3  S_3  
     e( 33 - 33) =      5.71902  eV     1   --> A_1  D_1  S_1  
     e( 34 - 34) =      5.88357  eV     1   --> A_2  D_2  S_2  
     e( 35 - 35) =      6.08091  eV     1   --> A_1  D_1  S_1  
     e( 36 - 36) =      6.14498  eV     1   --> B_2  D_4  S_4  
     e( 37 - 37) =      6.80109  eV     1   --> B_1  D_3  S_3  
     e( 38 - 38) =      6.92183  eV     1   --> A_1  D_1  S_1  
     e( 39 - 39) =      7.19485  eV     1   --> B_1  D_3  S_3  
     e( 40 - 40) =      7.20742  eV     1   --> A_2  D_2  S_2  
     e( 41 - 41) =      7.51912  eV     1   --> B_2  D_4  S_4  
     e( 42 - 42) =      7.54640  eV     1   --> A_2  D_2  S_2  
     e( 43 - 43) =      7.63530  eV     1   --> B_1  D_3  S_3  
     e( 44 - 44) =      7.96584  eV     1   --> A_1  D_1  S_1  
     e( 45 - 45) =      8.03691  eV     1   --> B_2  D_4  S_4  
     e( 46 - 46) =      8.08851  eV     1   --> A_1  D_1  S_1  
     e( 47 - 47) =      8.09523  eV     1   --> B_1  D_3  S_3  
     e( 48 - 48) =      8.16843  eV     1   --> B_1  D_3  S_3  
     e( 49 - 49) =      8.41008  eV     1   --> A_1  D_1  S_1  
     e( 50 - 50) =      8.48180  eV     1   --> A_2  D_2  S_2  
     e( 51 - 51) =      8.58956  eV     1   --> A_1  D_1  S_1  
     e( 52 - 52) =      8.65413  eV     1   --> B_2  D_4  S_4  
     e( 53 - 53) =      8.66454  eV     1   --> A_1  D_1  S_1  
     e( 54 - 54) =      8.70235  eV     1   --> B_2  D_4  S_4  
     e( 55 - 55) =      9.00032  eV     1   --> A_1  D_1  S_1  
     e( 56 - 56) =      9.03809  eV     1   --> A_2  D_2  S_2  
     e( 57 - 57) =      9.07289  eV     1   --> B_1  D_3  S_3  
     e( 58 - 58) =      9.44543  eV     1   --> B_2  D_4  S_4  
     e( 59 - 59) =      9.54528  eV     1   --> B_1  D_3  S_3  
     e( 60 - 60) =      9.82233  eV     1   --> A_1  D_1  S_1  
     e( 61 - 61) =      9.93075  eV     1   --> B_1  D_3  S_3  
     e( 62 - 62) =     10.00369  eV     1   --> A_2  D_2  S_2  
     e( 63 - 63) =     10.22318  eV     1   --> B_1  D_3  S_3  
     e( 64 - 64) =     12.88431  eV     1   --> A_1  D_1  S_1  
     e( 65 - 65) =     13.78981  eV     1   --> A_1  D_1  S_1  
     e( 66 - 66) =     14.07649  eV     1   --> A_1  D_1  S_1  
     e( 67 - 67) =     14.44565  eV     1   --> B_1  D_3  S_3  
     e( 68 - 68) =     14.75650  eV     1   --> A_1  D_1  S_1  
     e( 69 - 69) =     15.60992  eV     1   --> B_2  D_4  S_4  
     e( 70 - 70) =     15.63594  eV     1   --> A_1  D_1  S_1  
     e( 71 - 71) =     15.86985  eV     1   --> B_2  D_4  S_4  
     e( 72 - 72) =     16.10291  eV     1   --> B_1  D_3  S_3  
     e( 73 - 73) =     16.64870  eV     1   --> B_1  D_3  S_3  
     e( 74 - 74) =     16.69678  eV     1   --> A_1  D_1  S_1  
     e( 75 - 75) =     16.76167  eV     1   --> B_1  D_3  S_3  
     e( 76 - 76) =     17.11109  eV     1   --> A_2  D_2  S_2  
     e( 77 - 77) =     17.68103  eV     1   --> A_1  D_1  S_1  
     e( 78 - 78) =     18.14641  eV     1   --> A_1  D_1  S_1  
     e( 79 - 79) =     18.23762  eV     1   --> B_2  D_4  S_4  
     e( 80 - 80) =     18.39164  eV     1   --> B_1  D_3  S_3  
     e( 81 - 81) =     18.40294  eV     1   --> A_2  D_2  S_2  
     e( 82 - 82) =     18.65518  eV     1   --> B_1  D_3  S_3  
     e( 83 - 83) =     18.72882  eV     1   --> A_2  D_2  S_2  
     e( 84 - 84) =     19.24969  eV     1   --> A_1  D_1  S_1  
     e( 85 - 85) =     19.52360  eV     1   --> B_2  D_4  S_4  
     e( 86 - 86) =     19.55002  eV     1   --> A_1  D_1  S_1  
     e( 87 - 87) =     19.77532  eV     1   --> B_1  D_3  S_3  
     e( 88 - 88) =     19.89030  eV     1   --> B_2  D_4  S_4  
     e( 89 - 89) =     19.92468  eV     1   --> A_2  D_2  S_2  
     e( 90 - 90) =     20.00405  eV     1   --> B_1  D_3  S_3  
     e( 91 - 91) =     20.09554  eV     1   --> A_1  D_1  S_1  
     e( 92 - 92) =     20.26758  eV     1   --> B_1  D_3  S_3  
     e( 93 - 93) =     20.31960  eV     1   --> A_2  D_2  S_2  
     e( 94 - 94) =     20.35910  eV     1   --> A_1  D_1  S_1  

 **************************************************************************

 **************************************************************************

                    xk=(   0.22500,   0.00000,   0.00000  )

     Band symmetry, C_2v (mm2)  point group:

     e(  1 -  2) =   -101.70529  eV     2   --> A_1  D_1  S_1  
     e(  1 -  2) =   -101.70529  eV     2   --> B_1  D_3  S_3  
     e(  3 -  3) =   -101.28868  eV     1   --> A_1  D_1  S_1  
     e(  4 -  5) =    -59.23227  eV     2   --> A_2  D_2  S_2  
     e(  4 -  5) =    -59.23227  eV     2   --> B_2  D_4  S_4  
     e(  6 -  7) =    -59.22813  eV     2   --> A_1  D_1  S_1  
     e(  6 -  7) =    -59.22813  eV     2   --> B_1  D_3  S_3  
     e(  8 -  8) =    -58.83514  eV     1   --> A_1  D_1  S_1  
     e(  9 -  9) =    -58.83437  eV     1   --> B_1  D_3  S_3  
     e( 10 - 10) =    -58.82366  eV     1   --> B_1  D_3  S_3  
     e( 11 - 12) =    -58.62355  eV     2   --> A_1  D_1  S_1  
     e( 11 - 12) =    -58.62355  eV     2   --> B_2  D_4  S_4  
     e( 13 - 13) =    -30.61386  eV     1   --> A_1  D_1  S_1  
     e( 14 - 14) =    -15.88959  eV     1   --> A_1  D_1  S_1  
     e( 15 - 15) =    -15.87796  eV     1   --> B_1  D_3  S_3  
     e( 16 - 16) =    -10.99864  eV     1   --> B_1  D_3  S_3  
     e( 17 - 17) =    -10.83014  eV     1   --> A_1  D_1  S_1  
     e( 18 - 18) =    -10.58548  eV     1   --> B_2  D_4  S_4  
     e( 19 - 19) =     -7.36736  eV     1   --> A_1  D_1  S_1  
     e( 20 - 20) =     -6.84105  eV     1   --> B_1  D_3  S_3  
     e( 21 - 21) =     -6.73084  eV     1   --> A_1  D_1  S_1  
     e( 22 - 22) =     -6.46151  eV     1   --> B_1  D_3  S_3  
     e( 23 - 23) =     -6.42425  eV     1   --> A_1  D_1  S_1  
     e( 24 - 24) =     -6.30307  eV     1   --> B_1  D_3  S_3  
     e( 25 - 25) =     -1.36010  eV     1   --> A_1  D_1  S_1  
     e( 26 - 26) =     -1.13695  eV     1   --> B_1  D_3  S_3  
     e( 27 - 27) =     -0.86627  eV     1   --> A_1  D_1  S_1  
     e( 28 - 28) =     -0.82256  eV     1   --> B_1  D_3  S_3  
     e( 29 - 29) =     -0.75298  eV     1   --> B_2  D_4  S_4  
     e( 30 - 30) =     -0.73883  eV     1   --> A_2  D_2  S_2  
     e( 31 - 31) =      5.27491  eV     1   --> A_1  D_1  S_1  
     e( 32 - 32) =      5.46466  eV     1   --> B_1  D_3  S_3  
     e( 33 - 33) =      5.68485  eV     1   --> A_1  D_1  S_1  
     e( 34 - 34) =      5.91335  eV     1   --> A_2  D_2  S_2  
     e( 35 - 35) =      6.09490  eV     1   --> A_1  D_1  S_1  
     e( 36 - 36) =      6.15675  eV     1   --> B_2  D_4  S_4  
     e( 37 - 37) =      6.76859  eV     1   --> B_1  D_3  S_3  
     e( 38 - 38) =      6.90824  eV     1   --> A_1  D_1  S_1  
     e( 39 - 39) =      7.15210  eV     1   --> B_1  D_3  S_3  
     e( 40 - 40) =      7.16016  eV     1   --> A_2  D_2  S_2  
     e( 41 - 41) =      7.43876  eV     1   --> B_2  D_4  S_4  
     e( 42 - 42) =      7.47108  eV     1   --> A_2  D_2  S_2  
     e( 43 - 43) =      7.62789  eV     1   --> B_1  D_3  S_3  
     e( 44 - 44) =      7.92099  eV     1   --> A_1  D_1  S_1  
     e( 45 - 45) =      7.97515  eV     1   --> B_2  D_4  S_4  
     e( 46 - 46) =      8.02621  eV     1   --> B_1  D_3  S_3  
     e( 47 - 47) =      8.05254  eV     1   --> A_1  D_1  S_1  
     e( 48 - 48) =      8.15832  eV     1   --> B_1  D_3  S_3  
     e( 49 - 49) =      8.37287  eV     1   --> A_1  D_1  S_1  
     e( 50 - 50) =      8.49687  eV     1   --> A_2  D_2  S_2  
     e( 51 - 51) =      8.60314  eV     1   --> A_1  D_1  S_1  
     e( 52 - 52) =      8.64768  eV     1   --> B_2  D_4  S_4  
     e( 53 - 53) =      8.69045  eV     1   --> A_1  D_1  S_1  
     e( 54 - 54) =      8.71469  eV     1   --> B_2  D_4  S_4  
     e( 55 - 55) =      9.02380  eV     1   --> A_1  D_1  S_1  
     e( 56 - 56) =      9.07250  eV     1   --> A_2  D_2  S_2  
     e( 57 - 57) =      9.17872  eV     1   --> B_1  D_3  S_3  
     e( 58 - 58) =      9.48138  eV     1   --> B_2  D_4  S_4  
     e( 59 - 59) =      9.54907  eV     1   --> B_1  D_3  S_3  
     e( 60 - 60) =      9.86460  eV     1   --> A_1  D_1  S_1  
     e( 61 - 61) =      9.89905  eV     1   --> B_1  D_3  S_3  
     e( 62 - 62) =      9.97535  eV     1   --> A_2  D_2  S_2  
     e( 63 - 63) =     10.28722  eV     1   --> B_1  D_3  S_3  
     e( 64 - 64) =     12.83502  eV     1   --> A_1  D_1  S_1  
     e( 65 - 65) =     13.89800  eV     1   --> A_1  D_1  S_1  
     e( 66 - 66) =     14.19884  eV     1   --> A_1  D_1  S_1  
     e( 67 - 67) =     14.61801  eV     1   --> B_1  D_3  S_3  
     e( 68 - 68) =     14.77054  eV     1   --> A_1  D_1  S_1  
     e( 69 - 69) =     15.59367  eV     1   --> B_2  D_4  S_4  
     e( 70 - 70) =     15.73519  eV     1   --> A_1  D_1  S_1  
     e( 71 - 71) =     15.94344  eV     1   --> B_2  D_4  S_4  
     e( 72 - 72) =     16.22158  eV     1   --> B_1  D_3  S_3  
     e( 73 - 73) =     16.71461  eV     1   --> B_1  D_3  S_3  
     e( 74 - 74) =     16.74643  eV     1   --> B_1  D_3  S_3  
     e( 75 - 75) =     16.79008  eV     1   --> A_1  D_1  S_1  
     e( 76 - 76) =     17.12598  eV     1   --> A_2  D_2  S_2  
     e( 77 - 77) =     17.68723  eV     1   --> A_1  D_1  S_1  
     e( 78 - 78) =     18.01029  eV     1   --> A_1  D_1  S_1  
     e( 79 - 79) =     18.32382  eV     1   --> B_2  D_4  S_4  
     e( 80 - 80) =     18.36594  eV     1   --> B_1  D_3  S_3  
     e( 81 - 81) =     18.49450  eV     1   --> A_2  D_2  S_2  
     e( 82 - 82) =     18.72713  eV     1   --> A_2  D_2  S_2  
     e( 83 - 83) =     18.78673  eV     1   --> B_1  D_3  S_3  
     e( 84 - 84) =     19.20625  eV     1   --> A_1  D_1  S_1  
     e( 85 - 85) =     19.44545  eV     1   --> B_2  D_4  S_4  
     e( 86 - 86) =     19.64569  eV     1   --> A_1  D_1  S_1  
     e( 87 - 87) =     19.82433  eV     1   --> B_1  D_3  S_3  
     e( 88 - 88) =     19.90353  eV     1   --> A_2  D_2  S_2  
     e( 89 - 89) =     19.91177  eV     1   --> B_2  D_4  S_4  
     e( 90 - 90) =     19.97113  eV     1   --> B_1  D_3  S_3  
     e( 91 - 91) =     20.07107  eV     1   --> A_1  D_1  S_1  
     e( 92 - 92) =     20.30798  eV     1   --> B_1  D_3  S_3  
     e( 93 - 93) =     20.31929  eV     1   --> A_2  D_2  S_2  
     e( 94 - 94) =     20.32671  eV     1   --> A_1  D_1  S_1  

 **************************************************************************

 **************************************************************************

                    xk=(   0.25000,   0.00000,   0.00000  )

     Band symmetry, C_2v (mm2)  point group:

     e(  1 -  2) =   -101.70529  eV     2   --> A_1  D_1  S_1  
     e(  1 -  2) =   -101.70529  eV     2   --> B_1  D_3  S_3  
     e(  3 -  3) =   -101.28868  eV     1   --> A_1  D_1  S_1  
     e(  4 -  5) =    -59.23226  eV     2   --> A_2  D_2  S_2  
     e(  4 -  5) =    -59.23226  eV     2   --> B_2  D_4  S_4  
     e(  6 -  7) =    -59.22814  eV     2   --> A_1  D_1  S_1  
     e(  6 -  7) =    -59.22814  eV     2   --> B_1  D_3  S_3  
     e(  8 -  8) =    -58.83514  eV     1   --> A_1  D_1  S_1  
     e(  9 -  9) =    -58.83437  eV     1   --> B_1  D_3  S_3  
     e( 10 - 10) =    -58.82366  eV     1   --> B_1  D_3  S_3  
     e( 11 - 12) =    -58.62355  eV     2   --> A_1  D_1  S_1  
     e( 11 - 12) =    -58.62355  eV     2   --> B_2  D_4  S_4  
     e( 13 - 13) =    -30.61292  eV     1   --> A_1  D_1  S_1  
     e( 14 - 14) =    -15.88092  eV     1   --> A_1  D_1  S_1  
     e( 15 - 15) =    -15.86943  eV     1   --> B_1  D_3  S_3  
     e( 16 - 16) =    -10.98199  eV     1   --> B_1  D_3  S_3  
     e( 17 - 17) =    -10.86981  eV     1   --> A_1  D_1  S_1  
     e( 18 - 18) =    -10.58413  eV     1   --> B_2  D_4  S_4  
     e( 19 - 19) =     -7.31370  eV     1   --> A_1  D_1  S_1  
     e( 20 - 20) =     -6.86090  eV     1   --> B_1  D_3  S_3  
     e( 21 - 21) =     -6.75726  eV     1   --> A_1  D_1  S_1  
     e( 22 - 22) =     -6.48141  eV     1   --> B_1  D_3  S_3  
     e( 23 - 23) =     -6.41761  eV     1   --> A_1  D_1  S_1  
     e( 24 - 24) =     -6.31041  eV     1   --> B_1  D_3  S_3  
     e( 25 - 25) =     -1.35568  eV     1   --> A_1  D_1  S_1  
     e( 26 - 26) =     -1.13661  eV     1   --> B_1  D_3  S_3  
     e( 27 - 27) =     -0.87128  eV     1   --> A_1  D_1  S_1  
     e( 28 - 28) =     -0.82345  eV     1   --> B_1  D_3  S_3  
     e( 29 - 29) =     -0.73695  eV     1   --> B_2  D_4  S_4  
     e( 30 - 30) =     -0.72252  eV     1   --> A_2  D_2  S_2  
     e( 31 - 31) =      5.20367  eV     1   --> A_1  D_1  S_1  
     e( 32 - 32) =      5.39684  eV     1   --> B_1  D_3  S_3  
     e( 33 - 33) =      5.65748  eV     1   --> A_1  D_1  S_1  
     e( 34 - 34) =      5.94600  eV     1   --> A_2  D_2  S_2  
     e( 35 - 35) =      6.10493  eV     1   --> A_1  D_1  S_1  
     e( 36 - 36) =      6.17017  eV     1   --> B_2  D_4  S_4  
     e( 37 - 37) =      6.73437  eV     1   --> B_1  D_3  S_3  
     e( 38 - 38) =      6.89994  eV     1   --> A_1  D_1  S_1  
     e( 39 - 39) =      7.10967  eV     1   --> B_1  D_3  S_3  
     e( 40 - 40) =      7.11058  eV     1   --> A_2  D_2  S_2  
     e( 41 - 41) =      7.35961  eV     1   --> B_2  D_4  S_4  
     e( 42 - 42) =      7.39691  eV     1   --> A_2  D_2  S_2  
     e( 43 - 43) =      7.62605  eV     1   --> B_1  D_3  S_3  
     e( 44 - 44) =      7.86825  eV     1   --> A_1  D_1  S_1  
     e( 45 - 45) =      7.91087  eV     1   --> B_2  D_4  S_4  
     e( 46 - 46) =      7.95869  eV     1   --> B_1  D_3  S_3  
     e( 47 - 47) =      8.00694  eV     1   --> A_1  D_1  S_1  
     e( 48 - 48) =      8.15839  eV     1   --> B_1  D_3  S_3  
     e( 49 - 49) =      8.33759  eV     1   --> A_1  D_1  S_1  
     e( 50 - 50) =      8.50892  eV     1   --> A_2  D_2  S_2  
     e( 51 - 51) =      8.62382  eV     1   --> A_1  D_1  S_1  
     e( 52 - 52) =      8.64095  eV     1   --> B_2  D_4  S_4  
     e( 53 - 53) =      8.72504  eV     1   --> B_2  D_4  S_4  
     e( 54 - 54) =      8.73217  eV     1   --> A_1  D_1  S_1  
     e( 55 - 55) =      9.05124  eV     1   --> A_1  D_1  S_1  
     e( 56 - 56) =      9.10667  eV     1   --> A_2  D_2  S_2  
     e( 57 - 57) =      9.28059  eV     1   --> B_1  D_3  S_3  
     e( 58 - 58) =      9.51815  eV     1   --> B_2  D_4  S_4  
     e( 59 - 59) =      9.55287  eV     1   --> B_1  D_3  S_3  
     e( 60 - 60) =      9.86712  eV     1   --> B_1  D_3  S_3  
     e( 61 - 61) =      9.89878  eV     1   --> A_1  D_1  S_1  
     e( 62 - 62) =      9.94778  eV     1   --> A_2  D_2  S_2  
     e( 63 - 63) =     10.34243  eV     1   --> B_1  D_3  S_3  
     e( 64 - 64) =     12.76459  eV     1   --> A_1  D_1  S_1  
     e( 65 - 65) =     14.01066  eV     1   --> A_1  D_1  S_1  
     e( 66 - 66) =     14.29972  eV     1   --> A_1  D_1  S_1  
     e( 67 - 67) =     14.80201  eV     1   --> B_1  D_3  S_3  
     e( 68 - 68) =     14.83532  eV     1   --> A_1  D_1  S_1  
     e( 69 - 69) =     15.57708  eV     1   --> B_2  D_4  S_4  
     e( 70 - 70) =     15.83704  eV     1   --> A_1  D_1  S_1  
     e( 71 - 71) =     16.02430  eV     1   --> B_2  D_4  S_4  
     e( 72 - 72) =     16.28315  eV     1   --> B_1  D_3  S_3  
     e( 73 - 73) =     16.76616  eV     1   --> B_1  D_3  S_3  
     e( 74 - 74) =     16.81852  eV     1   --> B_1  D_3  S_3  
     e( 75 - 75) =     16.86287  eV     1   --> A_1  D_1  S_1  
     e( 76 - 76) =     17.14449  eV     1   --> A_2  D_2  S_2  
     e( 77 - 77) =     17.70022  eV     1   --> A_1  D_1  S_1  
     e( 78 - 78) =     17.89659  eV     1   --> A_1  D_1  S_1  
     e( 79 - 79) =     18.34243  eV     1   --> B_1  D_3  S_3  
     e( 80 - 80) =     18.41052  eV     1   --> B_2  D_4  S_4  
     e( 81 - 81) =     18.57257  eV     1   --> A_2  D_2  S_2  
     e( 82 - 82) =     18.73101  eV     1   --> A_2  D_2  S_2  
     e( 83 - 83) =     18.90766  eV     1   --> B_1  D_3  S_3  
     e( 84 - 84) =     19.16213  eV     1   --> A_1  D_1  S_1  
     e( 85 - 85) =     19.35217  eV     1   --> B_2  D_4  S_4  
     e( 86 - 86) =     19.72294  eV     1   --> A_1  D_1  S_1  
     e( 87 - 87) =     19.82726  eV     1   --> B_1  D_3  S_3  
     e( 88 - 88) =     19.88919  eV     1   --> A_2  D_2  S_2  
     e( 89 - 89) =     19.93872  eV     1   --> B_2  D_4  S_4  
     e( 90 - 90) =     19.97168  eV     1   --> B_1  D_3  S_3  
     e( 91 - 91) =     20.06013  eV     1   --> A_1  D_1  S_1  
     e( 92 - 92) =     20.29837  eV     1   --> A_1  D_1  S_1  
     e( 93 - 93) =     20.31173  eV     1   --> B_1  D_3  S_3  
     e( 94 - 94) =     20.31879  eV     1   --> A_2  D_2  S_2  

 **************************************************************************

 **************************************************************************

                    xk=(   0.27500,   0.00000,   0.00000  )

     Band symmetry, C_2v (mm2)  point group:

     e(  1 -  2) =   -101.70529  eV     2   --> A_1  D_1  S_1  
     e(  1 -  2) =   -101.70529  eV     2   --> B_1  D_3  S_3  
     e(  3 -  3) =   -101.28868  eV     1   --> A_1  D_1  S_1  
     e(  4 -  5) =    -59.23226  eV     2   --> A_2  D_2  S_2  
     e(  4 -  5) =    -59.23226  eV     2   --> B_2  D_4  S_4  
     e(  6 -  7) =    -59.22814  eV     2   --> A_1  D_1  S_1  
     e(  6 -  7) =    -59.22814  eV     2   --> B_1  D_3  S_3  
     e(  8 -  8) =    -58.83514  eV     1   --> A_1  D_1  S_1  
     e(  9 -  9) =    -58.83437  eV     1   --> B_1  D_3  S_3  
     e( 10 - 10) =    -58.82366  eV     1   --> B_1  D_3  S_3  
     e( 11 - 12) =    -58.62355  eV     2   --> A_1  D_1  S_1  
     e( 11 - 12) =    -58.62355  eV     2   --> B_2  D_4  S_4  
     e( 13 - 13) =    -30.61197  eV     1   --> A_1  D_1  S_1  
     e( 14 - 14) =    -15.87220  eV     1   --> A_1  D_1  S_1  
     e( 15 - 15) =    -15.86086  eV     1   --> B_1  D_3  S_3  
     e( 16 - 16) =    -10.96512  eV     1   --> B_1  D_3  S_3  
     e( 17 - 17) =    -10.90855  eV     1   --> A_1  D_1  S_1  
     e( 18 - 18) =    -10.58278  eV     1   --> B_2  D_4  S_4  
     e( 19 - 19) =     -7.25963  eV     1   --> A_1  D_1  S_1  
     e( 20 - 20) =     -6.88372  eV     1   --> B_1  D_3  S_3  
     e( 21 - 21) =     -6.78369  eV     1   --> A_1  D_1  S_1  
     e( 22 - 22) =     -6.50044  eV     1   --> B_1  D_3  S_3  
     e( 23 - 23) =     -6.41234  eV     1   --> A_1  D_1  S_1  
     e( 24 - 24) =     -6.31569  eV     1   --> B_1  D_3  S_3  
     e( 25 - 25) =     -1.35107  eV     1   --> A_1  D_1  S_1  
     e( 26 - 26) =     -1.13555  eV     1   --> B_1  D_3  S_3  
     e( 27 - 27) =     -0.87614  eV     1   --> A_1  D_1  S_1  
     e( 28 - 28) =     -0.82473  eV     1   --> B_1  D_3  S_3  
     e( 29 - 29) =     -0.72078  eV     1   --> B_2  D_4  S_4  
     e( 30 - 30) =     -0.70607  eV     1   --> A_2  D_2  S_2  
     e( 31 - 31) =      5.12984  eV     1   --> A_1  D_1  S_1  
     e( 32 - 32) =      5.32703  eV     1   --> B_1  D_3  S_3  
     e( 33 - 33) =      5.63575  eV     1   --> A_1  D_1  S_1  
     e( 34 - 34) =      5.98122  eV     1   --> A_2  D_2  S_2  
     e( 35 - 35) =      6.10981  eV     1   --> A_1  D_1  S_1  
     e( 36 - 36) =      6.18522  eV     1   --> B_2  D_4  S_4  
     e( 37 - 37) =      6.69958  eV     1   --> B_1  D_3  S_3  
     e( 38 - 38) =      6.89879  eV     1   --> A_1  D_1  S_1  
     e( 39 - 39) =      7.05976  eV     1   --> A_2  D_2  S_2  
     e( 40 - 40) =      7.06823  eV     1   --> B_1  D_3  S_3  
     e( 41 - 41) =      7.28261  eV     1   --> B_2  D_4  S_4  
     e( 42 - 42) =      7.32453  eV     1   --> A_2  D_2  S_2  
     e( 43 - 43) =      7.62616  eV     1   --> B_1  D_3  S_3  
     e( 44 - 44) =      7.81265  eV     1   --> A_1  D_1  S_1  
     e( 45 - 45) =      7.84600  eV     1   --> B_2  D_4  S_4  
     e( 46 - 46) =      7.90335  eV     1   --> B_1  D_3  S_3  
     e( 47 - 47) =      7.94905  eV     1   --> A_1  D_1  S_1  
     e( 48 - 48) =      8.16011  eV     1   --> B_1  D_3  S_3  
     e( 49 - 49) =      8.31189  eV     1   --> A_1  D_1  S_1  
     e( 50 - 50) =      8.51858  eV     1   --> A_2  D_2  S_2  
     e( 51 - 51) =      8.63415  eV     1   --> B_2  D_4  S_4  
     e( 52 - 52) =      8.64652  eV     1   --> A_1  D_1  S_1  
     e( 53 - 53) =      8.73368  eV     1   --> B_2  D_4  S_4  
     e( 54 - 54) =      8.78468  eV     1   --> A_1  D_1  S_1  
     e( 55 - 55) =      9.08255  eV     1   --> A_1  D_1  S_1  
     e( 56 - 56) =      9.13969  eV     1   --> A_2  D_2  S_2  
     e( 57 - 57) =      9.37562  eV     1   --> B_1  D_3  S_3  
     e( 58 - 58) =      9.55461  eV     1   --> B_2  D_4  S_4  
     e( 59 - 59) =      9.55773  eV     1   --> B_1  D_3  S_3  
     e( 60 - 60) =      9.83745  eV     1   --> B_1  D_3  S_3  
     e( 61 - 61) =      9.92159  eV     1   --> A_2  D_2  S_2  
     e( 62 - 62) =      9.92481  eV     1   --> A_1  D_1  S_1  
     e( 63 - 63) =     10.38789  eV     1   --> B_1  D_3  S_3  
     e( 64 - 64) =     12.67939  eV     1   --> A_1  D_1  S_1  
     e( 65 - 65) =     14.10990  eV     1   --> A_1  D_1  S_1  
     e( 66 - 66) =     14.38364  eV     1   --> A_1  D_1  S_1  
     e( 67 - 67) =     14.95480  eV     1   --> A_1  D_1  S_1  
     e( 68 - 68) =     14.99398  eV     1   --> B_1  D_3  S_3  
     e( 69 - 69) =     15.56075  eV     1   --> B_2  D_4  S_4  
     e( 70 - 70) =     15.93568  eV     1   --> A_1  D_1  S_1  
     e( 71 - 71) =     16.11131  eV     1   --> B_2  D_4  S_4  
     e( 72 - 72) =     16.28150  eV     1   --> B_1  D_3  S_3  
     e( 73 - 73) =     16.81507  eV     1   --> B_1  D_3  S_3  
     e( 74 - 74) =     16.90549  eV     1   --> A_1  D_1  S_1  
     e( 75 - 75) =     16.97104  eV     1   --> B_1  D_3  S_3  
     e( 76 - 76) =     17.16601  eV     1   --> A_2  D_2  S_2  
     e( 77 - 77) =     17.68778  eV     1   --> A_1  D_1  S_1  
     e( 78 - 78) =     17.85085  eV     1   --> A_1  D_1  S_1  
     e( 79 - 79) =     18.31905  eV     1   --> B_1  D_3  S_3  
     e( 80 - 80) =     18.49583  eV     1   --> B_2  D_4  S_4  
     e( 81 - 81) =     18.62645  eV     1   --> A_2  D_2  S_2  
     e( 82 - 82) =     18.74725  eV     1   --> A_2  D_2  S_2  
     e( 83 - 83) =     19.01247  eV     1   --> B_1  D_3  S_3  
     e( 84 - 84) =     19.11863  eV     1   --> A_1  D_1  S_1  
     e( 85 - 85) =     19.24845  eV     1   --> B_2  D_4  S_4  
     e( 86 - 87) =     19.76797  eV     2   --> A_1  D_1  S_1  
     e( 86 - 87) =     19.76797  eV     2   --> B_1  D_3  S_3  
     e( 88 - 88) =     19.88428  eV     1   --> A_2  D_2  S_2  
     e( 89 - 89) =     19.96567  eV     1   --> B_2  D_4  S_4  
     e( 90 - 90) =     20.02338  eV     1   --> B_1  D_3  S_3  
     e( 91 - 91) =     20.06724  eV     1   --> A_1  D_1  S_1  
     e( 92 - 92) =     20.27987  eV     1   --> A_1  D_1  S_1  
     e( 93 - 93) =     20.28744  eV     1   --> B_1  D_3  S_3  
     e( 94 - 94) =     20.31802  eV     1   --> A_2  D_2  S_2  

 **************************************************************************

 **************************************************************************

                    xk=(   0.30000,   0.00000,   0.00000  )

     Band symmetry, C_2v (mm2)  point group:

     e(  1 -  2) =   -101.70529  eV     2   --> A_1  D_1  S_1  
     e(  1 -  2) =   -101.70529  eV     2   --> B_1  D_3  S_3  
     e(  3 -  3) =   -101.28868  eV     1   --> A_1  D_1  S_1  
     e(  4 -  5) =    -59.23226  eV     2   --> A_2  D_2  S_2  
     e(  4 -  5) =    -59.23226  eV     2   --> B_2  D_4  S_4  
[...]
     e(  4 -  5) =    -59.23232  eV     2   --> A''            
     e(  6 -  7) =    -59.22815  eV     2   --> A'             
     e(  6 -  7) =    -59.22815  eV     2   --> A''            
     e(  8 -  8) =    -58.83511  eV     1   --> A'             
     e(  9 -  9) =    -58.83434  eV     1   --> A''            
     e( 10 - 10) =    -58.82364  eV     1   --> A''            
     e( 11 - 11) =    -58.62369  eV     1   --> A'             
     e( 12 - 12) =    -58.62356  eV     1   --> A'             
     e( 13 - 13) =    -30.59549  eV     1   --> A'             
     e( 14 - 14) =    -15.74392  eV     1   --> A'             
     e( 15 - 15) =    -15.73363  eV     1   --> A''            
     e( 16 - 16) =    -11.05969  eV     1   --> A'             
     e( 17 - 17) =    -11.05054  eV     1   --> A'             
     e( 18 - 18) =    -10.68922  eV     1   --> A''            
     e( 19 - 19) =     -6.72999  eV     1   --> A''            
     e( 20 - 20) =     -6.70824  eV     1   --> A''            
     e( 21 - 21) =     -6.68312  eV     1   --> A'             
     e( 22 - 22) =     -6.43412  eV     1   --> A''            
     e( 23 - 23) =     -6.29580  eV     1   --> A'             
     e( 24 - 24) =     -6.26153  eV     1   --> A'             
     e( 25 - 25) =     -1.58314  eV     1   --> A'             
     e( 26 - 26) =     -1.55742  eV     1   --> A''            
     e( 27 - 27) =     -1.54686  eV     1   --> A'             
     e( 28 - 28) =     -1.51686  eV     1   --> A''            
     e( 29 - 29) =     -1.29896  eV     1   --> A'             
     e( 30 - 30) =     -1.10396  eV     1   --> A''            
     e( 31 - 31) =      3.61312  eV     1   --> A'             
     e( 32 - 32) =      4.21952  eV     1   --> A''            
     e( 33 - 33) =      5.24989  eV     1   --> A'             
     e( 34 - 34) =      5.45566  eV     1   --> A'             
     e( 35 - 35) =      5.50350  eV     1   --> A''            
     e( 36 - 36) =      5.65389  eV     1   --> A'             
     e( 37 - 37) =      5.96830  eV     1   --> A''            
     e( 38 - 38) =      6.72689  eV     1   --> A'             
     e( 39 - 39) =      6.74783  eV     1   --> A'             
     e( 40 - 40) =      6.98128  eV     1   --> A''            
     e( 41 - 41) =      7.10645  eV     1   --> A''            
     e( 42 - 42) =      7.13828  eV     1   --> A''            
     e( 43 - 43) =      7.41406  eV     1   --> A''            
     e( 44 - 44) =      7.43878  eV     1   --> A''            
     e( 45 - 45) =      8.26146  eV     1   --> A'             
     e( 46 - 46) =      8.43711  eV     1   --> A'             
     e( 47 - 47) =      8.49600  eV     1   --> A'             
     e( 48 - 48) =      8.49730  eV     1   --> A'             
     e( 49 - 49) =      8.79019  eV     1   --> A'             
     e( 50 - 50) =      9.09417  eV     1   --> A'             
     e( 51 - 51) =      9.34607  eV     1   --> A'             
     e( 52 - 52) =      9.45165  eV     1   --> A'             
     e( 53 - 53) =      9.50655  eV     1   --> A''            
     e( 54 - 54) =      9.58164  eV     1   --> A''            
     e( 55 - 55) =      9.58247  eV     1   --> A'             
     e( 56 - 56) =      9.61634  eV     1   --> A'             
     e( 57 - 57) =      9.66003  eV     1   --> A''            
     e( 58 - 58) =      9.71856  eV     1   --> A''            
     e( 59 - 59) =      9.78920  eV     1   --> A''            
     e( 60 - 60) =     10.17521  eV     1   --> A''            
     e( 61 - 61) =     10.21963  eV     1   --> A''            
     e( 62 - 62) =     12.54018  eV     1   --> A'             
     e( 63 - 63) =     12.61738  eV     1   --> A''            
     e( 64 - 64) =     12.66826  eV     1   --> A'             
     e( 65 - 65) =     12.76445  eV     1   --> A'             
     e( 66 - 66) =     13.61328  eV     1   --> A'             
     e( 67 - 67) =     14.57982  eV     1   --> A'             
     e( 68 - 68) =     15.63292  eV     1   --> A''            
     e( 69 - 69) =     15.67755  eV     1   --> A''            
     e( 70 - 70) =     15.79541  eV     1   --> A'             
     e( 71 - 71) =     16.14966  eV     1   --> A'             
     e( 72 - 72) =     16.23507  eV     1   --> A''            
     e( 73 - 73) =     17.30282  eV     1   --> A''            
     e( 74 - 74) =     17.46130  eV     1   --> A''            
     e( 75 - 75) =     17.76949  eV     1   --> A'             
     e( 76 - 76) =     17.98075  eV     1   --> A'             
     e( 77 - 77) =     17.98160  eV     1   --> A''            
     e( 78 - 78) =     18.26164  eV     1   --> A'             
     e( 79 - 79) =     18.43293  eV     1   --> A'             
     e( 80 - 80) =     19.08011  eV     1   --> A''            
     e( 81 - 81) =     19.08347  eV     1   --> A'             
     e( 82 - 82) =     19.16584  eV     1   --> A''            
     e( 83 - 83) =     19.32143  eV     1   --> A'             
     e( 84 - 84) =     19.45551  eV     1   --> A''            
     e( 85 - 85) =     19.75498  eV     1   --> A'             
     e( 86 - 86) =     20.00129  eV     1   --> A'             
     e( 87 - 87) =     20.12287  eV     1   --> A''            
     e( 88 - 88) =     20.15824  eV     1   --> A'             
     e( 89 - 89) =     20.17786  eV     1   --> A'             
     e( 90 - 90) =     20.23384  eV     1   --> A''            
     e( 91 - 91) =     20.32720  eV     1   --> A''            
     e( 92 - 92) =     20.40842  eV     1   --> A''            
     e( 93 - 93) =     20.47194  eV     1   --> A''            
     e( 94 - 94) =     20.49429  eV     1   --> A'             

 **************************************************************************

 **************************************************************************

                    xk=(   0.47500,   0.47500,   0.00000  )

     Band symmetry, C_s (m)     point group:

     e(  1 -  2) =   -101.70531  eV     2   --> A'             
     e(  1 -  2) =   -101.70531  eV     2   --> A''            
     e(  3 -  3) =   -101.28867  eV     1   --> A'             
     e(  4 -  5) =    -59.23232  eV     2   --> A'             
     e(  4 -  5) =    -59.23232  eV     2   --> A''            
     e(  6 -  7) =    -59.22815  eV     2   --> A'             
     e(  6 -  7) =    -59.22815  eV     2   --> A''            
     e(  8 -  8) =    -58.83511  eV     1   --> A'             
     e(  9 -  9) =    -58.83434  eV     1   --> A''            
     e( 10 - 10) =    -58.82364  eV     1   --> A''            
     e( 11 - 11) =    -58.62369  eV     1   --> A'             
     e( 12 - 12) =    -58.62357  eV     1   --> A'             
     e( 13 - 13) =    -30.59505  eV     1   --> A'             
     e( 14 - 14) =    -15.74073  eV     1   --> A'             
     e( 15 - 15) =    -15.73045  eV     1   --> A''            
     e( 16 - 16) =    -11.06673  eV     1   --> A'             
     e( 17 - 17) =    -11.05763  eV     1   --> A'             
     e( 18 - 18) =    -10.68172  eV     1   --> A''            
     e( 19 - 19) =     -6.72517  eV     1   --> A''            
     e( 20 - 20) =     -6.71490  eV     1   --> A''            
     e( 21 - 21) =     -6.67055  eV     1   --> A'             
     e( 22 - 22) =     -6.42864  eV     1   --> A''            
     e( 23 - 23) =     -6.27698  eV     1   --> A'             
     e( 24 - 24) =     -6.25429  eV     1   --> A'             
     e( 25 - 25) =     -1.59592  eV     1   --> A'             
     e( 26 - 26) =     -1.58587  eV     1   --> A'             
     e( 27 - 27) =     -1.57034  eV     1   --> A''            
     e( 28 - 28) =     -1.55938  eV     1   --> A''            
     e( 29 - 29) =     -1.30185  eV     1   --> A'             
     e( 30 - 30) =     -1.10378  eV     1   --> A''            
     e( 31 - 31) =      3.56839  eV     1   --> A'             
     e( 32 - 32) =      4.17861  eV     1   --> A''            
     e( 33 - 33) =      5.21867  eV     1   --> A'             
     e( 34 - 34) =      5.44585  eV     1   --> A'             
     e( 35 - 35) =      5.49334  eV     1   --> A''            
     e( 36 - 36) =      5.65736  eV     1   --> A'             
     e( 37 - 37) =      5.96191  eV     1   --> A''            
     e( 38 - 38) =      6.73189  eV     1   --> A'             
     e( 39 - 39) =      6.74277  eV     1   --> A'             
     e( 40 - 40) =      7.00508  eV     1   --> A''            
     e( 41 - 41) =      7.08537  eV     1   --> A''            
     e( 42 - 42) =      7.11217  eV     1   --> A''            
     e( 43 - 43) =      7.43503  eV     1   --> A''            
     e( 44 - 44) =      7.44149  eV     1   --> A''            
     e( 45 - 45) =      8.26571  eV     1   --> A'             
     e( 46 - 46) =      8.48868  eV     1   --> A'             
     e( 47 - 47) =      8.49716  eV     1   --> A'             
     e( 48 - 48) =      8.50862  eV     1   --> A'             
     e( 49 - 49) =      8.79194  eV     1   --> A'             
     e( 50 - 50) =      9.12326  eV     1   --> A'             
     e( 51 - 51) =      9.35478  eV     1   --> A'             
     e( 52 - 52) =      9.51226  eV     1   --> A'             
     e( 53 - 53) =      9.56265  eV     1   --> A''            
     e( 54 - 54) =      9.58360  eV     1   --> A'             
     e( 55 - 55) =      9.60657  eV     1   --> A'             
     e( 56 - 56) =      9.64223  eV     1   --> A''            
     e( 57 - 57) =      9.67573  eV     1   --> A''            
     e( 58 - 58) =      9.72541  eV     1   --> A''            
     e( 59 - 59) =      9.75167  eV     1   --> A''            
     e( 60 - 60) =     10.21238  eV     1   --> A''            
     e( 61 - 61) =     10.22405  eV     1   --> A''            
     e( 62 - 62) =     12.60869  eV     1   --> A'             
     e( 63 - 63) =     12.68060  eV     1   --> A''            
     e( 64 - 64) =     12.69909  eV     1   --> A'             
     e( 65 - 65) =     12.72895  eV     1   --> A'             
     e( 66 - 66) =     13.53654  eV     1   --> A'             
     e( 67 - 67) =     14.52123  eV     1   --> A'             
     e( 68 - 68) =     15.61135  eV     1   --> A''            
     e( 69 - 69) =     15.62781  eV     1   --> A''            
     e( 70 - 70) =     15.75719  eV     1   --> A'             
     e( 71 - 71) =     16.16266  eV     1   --> A''            
     e( 72 - 72) =     16.20211  eV     1   --> A'             
     e( 73 - 73) =     17.39319  eV     1   --> A''            
     e( 74 - 74) =     17.44033  eV     1   --> A''            
     e( 75 - 75) =     17.88902  eV     1   --> A'             
     e( 76 - 76) =     17.91343  eV     1   --> A''            
     e( 77 - 77) =     18.02611  eV     1   --> A'             
     e( 78 - 78) =     18.15262  eV     1   --> A'             
     e( 79 - 79) =     18.42577  eV     1   --> A'             
     e( 80 - 80) =     19.14148  eV     1   --> A''            
     e( 81 - 81) =     19.29736  eV     1   --> A'             
     e( 82 - 82) =     19.34607  eV     1   --> A''            
     e( 83 - 83) =     19.38308  eV     1   --> A'             
     e( 84 - 84) =     19.46287  eV     1   --> A''            
     e( 85 - 85) =     19.74717  eV     1   --> A'             
     e( 86 - 86) =     20.02084  eV     1   --> A'             
     e( 87 - 87) =     20.04978  eV     1   --> A''            
     e( 88 - 88) =     20.17443  eV     1   --> A'             
     e( 89 - 89) =     20.24338  eV     1   --> A''            
     e( 90 - 90) =     20.26340  eV     1   --> A'             
     e( 91 - 91) =     20.34976  eV     1   --> A''            
     e( 92 - 92) =     20.37297  eV     1   --> A''            
     e( 93 - 93) =     20.47651  eV     1   --> A''            
     e( 94 - 94) =     20.49968  eV     1   --> A'             

 **************************************************************************

 **************************************************************************

                    xk=(   0.50000,   0.50000,   0.00000  )

     point group D_2h (mmm) 
     there are  8 classes
     the character table:

       E     C2    C2'   C2''  i     s_v   s_v'  s_v''
A_g    1.00  1.00  1.00  1.00  1.00  1.00  1.00  1.00
B_1g   1.00  1.00 -1.00 -1.00  1.00  1.00 -1.00 -1.00
B_2g   1.00 -1.00  1.00 -1.00  1.00 -1.00  1.00 -1.00
B_3g   1.00 -1.00 -1.00  1.00  1.00 -1.00 -1.00  1.00
A_u    1.00  1.00  1.00  1.00 -1.00 -1.00 -1.00 -1.00
B_1u   1.00  1.00 -1.00 -1.00 -1.00 -1.00  1.00  1.00
B_2u   1.00 -1.00  1.00 -1.00 -1.00  1.00 -1.00  1.00
B_3u   1.00 -1.00 -1.00  1.00 -1.00  1.00  1.00 -1.00

     the symmetry operations in each class and the name of the first element:

     E        1
                                                                 
     C2       2
                                                                 
     C2'      4
                                                                 
     C2''     3
                                                                 
     i        5
                                                                 
     s_v      6
                                                                 
     s_v'     8
                                                                 
     s_v''    7
                                                                 

     Band symmetry, D_2h (mmm)  point group:

     e(  1 -  2) =   -101.70531  eV     2   --> A_g            
     e(  1 -  2) =   -101.70531  eV     2   --> B_1u           
     e(  3 -  3) =   -101.28867  eV     1   --> A_g            
     e(  4 -  5) =    -59.23232  eV     2   --> B_2g           
     e(  4 -  5) =    -59.23232  eV     2   --> B_3u           
     e(  6 -  7) =    -59.22815  eV     2   --> B_3g           
     e(  6 -  7) =    -59.22815  eV     2   --> B_2u           
     e(  8 -  8) =    -58.83511  eV     1   --> A_g            
     e(  9 -  9) =    -58.83434  eV     1   --> B_1u           
     e( 10 - 10) =    -58.82364  eV     1   --> B_1u           
     e( 11 - 11) =    -58.62369  eV     1   --> B_3u           
     e( 12 - 12) =    -58.62357  eV     1   --> B_2u           
     e( 13 - 13) =    -30.59490  eV     1   --> B_1g           
     e( 14 - 14) =    -15.73967  eV     1   --> B_1g           
     e( 15 - 15) =    -15.72939  eV     1   --> A_u            
     e( 16 - 16) =    -11.06912  eV     1   --> B_2u           
     e( 17 - 17) =    -11.05997  eV     1   --> B_3u           
     e( 18 - 18) =    -10.67920  eV     1   --> A_u            
     e( 19 - 19) =     -6.72476  eV     1   --> B_2g           
     e( 20 - 20) =     -6.71586  eV     1   --> B_3g           
     e( 21 - 21) =     -6.66618  eV     1   --> A_g            
     e( 22 - 22) =     -6.42672  eV     1   --> B_1u           
     e( 23 - 23) =     -6.27218  eV     1   --> B_3u           
     e( 24 - 24) =     -6.25035  eV     1   --> B_2u           
     e( 25 - 25) =     -1.60167  eV     1   --> B_2u           
     e( 26 - 26) =     -1.59776  eV     1   --> B_3u           
     e( 27 - 27) =     -1.57613  eV     1   --> B_3g           
     e( 28 - 28) =     -1.57243  eV     1   --> B_2g           
     e( 29 - 29) =     -1.30279  eV     1   --> B_1g           
     e( 30 - 30) =     -1.10372  eV     1   --> A_u            
     e( 31 - 31) =      3.55334  eV     1   --> A_g            
     e( 32 - 32) =      4.16483  eV     1   --> B_1u           
     e( 33 - 33) =      5.20830  eV     1   --> B_1g           
     e( 34 - 34) =      5.44256  eV     1   --> A_g            
     e( 35 - 35) =      5.48993  eV     1   --> B_1u           
     e( 36 - 36) =      5.65864  eV     1   --> A_g            
     e( 37 - 37) =      5.95987  eV     1   --> A_u            
     e( 38 - 38) =      6.73222  eV     1   --> B_3u           
     e( 39 - 39) =      6.74226  eV     1   --> B_2u           
     e( 40 - 40) =      7.01796  eV     1   --> B_1u           
     e( 41 - 41) =      7.07492  eV     1   --> B_2g           
     e( 42 - 42) =      7.10161  eV     1   --> B_3g           
     e( 43 - 43) =      7.44234  eV     1   --> B_2g           
     e( 44 - 44) =      7.44248  eV     1   --> B_3g           
     e( 45 - 45) =      8.26670  eV     1   --> A_g            
     e( 46 - 46) =      8.49134  eV     1   --> B_1g           
     e( 47 - 47) =      8.51237  eV     1   --> B_2u           
     e( 48 - 48) =      8.51348  eV     1   --> B_3u           
     e( 49 - 49) =      8.79238  eV     1   --> A_g            
     e( 50 - 50) =      9.13350  eV     1   --> B_1g           
     e( 51 - 51) =      9.35772  eV     1   --> B_1g           
     e( 52 - 52) =      9.54451  eV     1   --> A_g            
     e( 53 - 53) =      9.57780  eV     1   --> B_2u           
     e( 54 - 54) =      9.58575  eV     1   --> B_1u           
     e( 55 - 55) =      9.59697  eV     1   --> B_3u           
     e( 56 - 56) =      9.66421  eV     1   --> A_u            
     e( 57 - 57) =      9.68941  eV     1   --> A_u            
     e( 58 - 58) =      9.72532  eV     1   --> B_3g           
     e( 59 - 59) =      9.72731  eV     1   --> B_2g           
     e( 60 - 60) =     10.22528  eV     1   --> B_3g           
     e( 61 - 61) =     10.22572  eV     1   --> B_2g           
     e( 62 - 62) =     12.63498  eV     1   --> A_g            
     e( 63 - 63) =     12.70232  eV     1   --> B_1u           
     e( 64 - 64) =     12.71063  eV     1   --> B_2u           
     e( 65 - 65) =     12.71651  eV     1   --> B_3u           
     e( 66 - 66) =     13.50752  eV     1   --> A_g            
     e( 67 - 67) =     14.50071  eV     1   --> B_1g           
     e( 68 - 68) =     15.60250  eV     1   --> B_3g           
     e( 69 - 69) =     15.61338  eV     1   --> B_2g           
     e( 70 - 70) =     15.74360  eV     1   --> A_g            
     e( 71 - 71) =     16.13648  eV     1   --> B_1u           
     e( 72 - 72) =     16.22039  eV     1   --> B_1g           
     e( 73 - 73) =     17.42725  eV     1   --> B_2g           
     e( 74 - 74) =     17.43728  eV     1   --> B_3g           
     e( 75 - 75) =     17.88192  eV     1   --> A_u            
     e( 76 - 76) =     17.99445  eV     1   --> B_1g           
     e( 77 - 77) =     18.03353  eV     1   --> B_2u           
     e( 78 - 78) =     18.05728  eV     1   --> B_3u           
     e( 79 - 79) =     18.42211  eV     1   --> A_g            
     e( 80 - 80) =     19.13304  eV     1   --> B_1u           
     e( 81 - 81) =     19.40452  eV     1   --> B_2u           
     e( 82 - 82) =     19.40595  eV     1   --> B_3u           
     e( 83 - 83) =     19.46523  eV     1   --> B_3g           
     e( 84 - 84) =     19.46717  eV     1   --> B_2g           
     e( 85 - 85) =     19.72976  eV     1   --> A_g            
     e( 86 - 86) =     19.94212  eV     1   --> B_1g           
     e( 87 - 87) =     19.99530  eV     1   --> A_u            
     e( 88 - 88) =     20.18188  eV     1   --> B_1g           
     e( 89 - 89) =     20.24651  eV     1   --> A_u            
     e( 90 - 90) =     20.35322  eV     1   --> B_3g           
     e( 91 - 91) =     20.36568  eV     1   --> B_2g           
     e( 92 - 92) =     20.39195  eV     1   --> A_g            
     e( 93 - 93) =     20.47839  eV     1   --> A_u            
     e( 94 - 94) =     20.50230  eV     1   --> B_1g           

 **************************************************************************
 
     BANDS        :   3m52.36s CPU   4m39.02s WALL

 
   This run was terminated on:  12:37:53  29Dec2023            

=------------------------------------------------------------------------------=
   JOB DONE.
=------------------------------------------------------------------------------=
