
     Program PWSCF v.7.2 starts on 29Dec2023 at  1:51:55 

     This program is part of the open-source Quantum ESPRESSO suite
     for quantum simulation of materials; please cite
         "P. Giannozzi et al., J. Phys.:Condens. Matter 21 395502 (2009);
         "P. Giannozzi et al., J. Phys.:Condens. Matter 29 465901 (2017);
         "P. Giannozzi et al., J. Chem. Phys. 152 154105 (2020);
          URL http://www.quantum-espresso.org", 
     in publications or presentations arising from this work. More details at
     http://www.quantum-espresso.org/quote

     Parallel version (MPI), running on     4 processors

     MPI processes distributed on     1 nodes
     7914 MiB available memory on the printing compute node when the environment starts
 
     Waiting for input...
     Reading input from standard input
Warning: card &CELL ignored
Warning: card / ignored

     Current dimensions of program PWSCF are:
     Max number of different atomic species (ntypx) = 10
     Max number of k-points (npk) =  40000
     Max angular momentum in pseudopotentials (lmaxx) =  4
 
     R & G space division:  proc/nbgrp/npool/nimage =       4
     Subspace diagonalization in iterative solution of the eigenvalue problem:
     a serial algorithm will be used

 
     Parallelization info
     --------------------
     sticks:   dense  smooth     PW     G-vecs:    dense   smooth      PW
     Min         768     384    109                96560    34108    5179
     Max         770     386    110                96564    34112    5188
     Sum        3077    1541    437               386249   136441   20731
 
     Using Slab Decomposition
 


     bravais-lattice index     =            6
     lattice parameter (alat)  =       7.3208  a.u.
     unit-cell volume          =    1184.0154 (a.u.)^3
     number of atoms/cell      =           12
     number of atomic types    =            4
     number of electrons       =       124.00
     number of Kohn-Sham states=           74
     kinetic-energy cutoff     =      90.0000  Ry
     charge density cutoff     =     720.0000  Ry
     scf convergence threshold =      1.0E-08
     mixing beta               =       0.1000
     number of iterations used =            8  plain     mixing
     Exchange-correlation= SLA  PW   PBE  PBE
                           (   1   4   3   4   0   0   0)

     celldm(1)=   7.320840  celldm(2)=   0.000000  celldm(3)=   3.017690
     celldm(4)=   0.000000  celldm(5)=   0.000000  celldm(6)=   0.000000

     crystal axes: (cart. coord. in units of alat)
               a(1) = (   1.000000   0.000000   0.000000 )  
               a(2) = (   0.000000   1.000000   0.000000 )  
               a(3) = (   0.000000   0.000000   3.017690 )  

     reciprocal axes: (cart. coord. in units 2 pi/alat)
               b(1) = (  1.000000  0.000000  0.000000 )  
               b(2) = (  0.000000  1.000000  0.000000 )  
               b(3) = (  0.000000  0.000000  0.331379 )  


     PseudoPot. # 1 for Y  read from file:
     ~/q-e/pseudo/all_pbe_UPF_v1.5/y_pbe_v1.4.uspp.F.UPF
     MD5 check sum: Not computed, couldn't open file
     Pseudo is Ultrasoft + core correction, Zval = 11.0
     Generated by new atomic code, or converted to UPF format
     Using radial grid of  885 points,  6 beta functions with: 
                l(1) =   0
                l(2) =   0
                l(3) =   1
                l(4) =   1
                l(5) =   2
                l(6) =   2
     Q(r) pseudized with  8 coefficients,  rinner =    1.200   1.200   1.200
                                                       1.200   1.200

     PseudoPot. # 2 for Ba read from file:
     ~/q-e/pseudo/all_pbe_UPF_v1.5/ba_pbe_v1.uspp.F.UPF
     MD5 check sum: Not computed, couldn't open file
     Pseudo is Ultrasoft + core correction, Zval = 10.0
     Generated by new atomic code, or converted to UPF format
     Using radial grid of  907 points,  7 beta functions with: 
                l(1) =   0
                l(2) =   0
                l(3) =   1
                l(4) =   1
                l(5) =   2
                l(6) =   2
                l(7) =   3
     Q(r) pseudized with  6 coefficients,  rinner =    1.700   1.700   1.700
                                                       1.700   1.700   1.700
                                                       1.700

     PseudoPot. # 3 for Cu read from file:
     ~/q-e/pseudo/all_pbe_UPF_v1.5/cu_pbe_v1.2.uspp.F.UPF
     MD5 check sum: Not computed, couldn't open file
     Pseudo is Ultrasoft + core correction, Zval = 19.0
     Generated by new atomic code, or converted to UPF format
     Using radial grid of  867 points,  6 beta functions with: 
                l(1) =   0
                l(2) =   0
                l(3) =   1
                l(4) =   1
                l(5) =   2
                l(6) =   2
     Q(r) pseudized with  8 coefficients,  rinner =    1.150   1.150   1.150
                                                       1.150   1.150

     PseudoPot. # 4 for O  read from file:
     ~/q-e/pseudo/all_pbe_UPF_v1.5/o_pbe_v1.2.uspp.F.UPF
     MD5 check sum: Not computed, couldn't open file
     Pseudo is Ultrasoft + core correction, Zval =  6.0
     Generated by new atomic code, or converted to UPF format
     Using radial grid of  737 points,  5 beta functions with: 
                l(1) =   0
                l(2) =   0
                l(3) =   1
                l(4) =   1
                l(5) =   2
     Q(r) pseudized with  8 coefficients,  rinner =    0.900   0.900   0.900
                                                       0.900   0.900

     atomic species   valence    mass     pseudopotential
     Y                11.00    88.90584     Y ( 1.00)
     Ba               10.00   137.32700     Ba( 1.00)
     Cu               19.00    63.54600     Cu( 1.00)
     O                 6.00    15.99900     O ( 1.00)

      8 Sym. Ops., with inversion, found


                                    s                        frac. trans.

      isym =  1     identity                                     

 cryst.   s( 1) = (     1          0          0      )
                  (     0          1          0      )
                  (     0          0          1      )

 cart.    s( 1) = (  1.0000000  0.0000000  0.0000000 )
                  (  0.0000000  1.0000000  0.0000000 )
                  (  0.0000000  0.0000000  1.0000000 )


      isym =  2     180 deg rotation - cart. axis [0,0,1]        

 cryst.   s( 2) = (    -1          0          0      )
                  (     0         -1          0      )
                  (     0          0          1      )

 cart.    s( 2) = ( -1.0000000  0.0000000  0.0000000 )
                  (  0.0000000 -1.0000000  0.0000000 )
                  (  0.0000000  0.0000000  1.0000000 )


      isym =  3     180 deg rotation - cart. axis [0,1,0]        

 cryst.   s( 3) = (    -1          0          0      )
                  (     0          1          0      )
                  (     0          0         -1      )

 cart.    s( 3) = ( -1.0000000  0.0000000  0.0000000 )
                  (  0.0000000  1.0000000  0.0000000 )
                  (  0.0000000  0.0000000 -1.0000000 )


      isym =  4     180 deg rotation - cart. axis [1,0,0]        

 cryst.   s( 4) = (     1          0          0      )
                  (     0         -1          0      )
                  (     0          0         -1      )

 cart.    s( 4) = (  1.0000000  0.0000000  0.0000000 )
                  (  0.0000000 -1.0000000  0.0000000 )
                  (  0.0000000  0.0000000 -1.0000000 )


      isym =  5     inversion                                    

 cryst.   s( 5) = (    -1          0          0      )
                  (     0         -1          0      )
                  (     0          0         -1      )

 cart.    s( 5) = ( -1.0000000  0.0000000  0.0000000 )
                  (  0.0000000 -1.0000000  0.0000000 )
                  (  0.0000000  0.0000000 -1.0000000 )


      isym =  6     inv. 180 deg rotation - cart. axis [0,0,1]   

 cryst.   s( 6) = (     1          0          0      )
                  (     0          1          0      )
                  (     0          0         -1      )

 cart.    s( 6) = (  1.0000000  0.0000000  0.0000000 )
                  (  0.0000000  1.0000000  0.0000000 )
                  (  0.0000000  0.0000000 -1.0000000 )


      isym =  7     inv. 180 deg rotation - cart. axis [0,1,0]   

 cryst.   s( 7) = (     1          0          0      )
                  (     0         -1          0      )
                  (     0          0          1      )

 cart.    s( 7) = (  1.0000000  0.0000000  0.0000000 )
                  (  0.0000000 -1.0000000  0.0000000 )
                  (  0.0000000  0.0000000  1.0000000 )


      isym =  8     inv. 180 deg rotation - cart. axis [1,0,0]   

 cryst.   s( 8) = (    -1          0          0      )
                  (     0          1          0      )
                  (     0          0          1      )

 cart.    s( 8) = ( -1.0000000  0.0000000  0.0000000 )
                  (  0.0000000  1.0000000  0.0000000 )
                  (  0.0000000  0.0000000  1.0000000 )


     point group D_2h (mmm) 
     there are  8 classes
     the character table:

       E     C2    C2'   C2''  i     s_v   s_v'  s_v''
A_g    1.00  1.00  1.00  1.00  1.00  1.00  1.00  1.00
B_1g   1.00  1.00 -1.00 -1.00  1.00  1.00 -1.00 -1.00
B_2g   1.00 -1.00  1.00 -1.00  1.00 -1.00  1.00 -1.00
B_3g   1.00 -1.00 -1.00  1.00  1.00 -1.00 -1.00  1.00
A_u    1.00  1.00  1.00  1.00 -1.00 -1.00 -1.00 -1.00
B_1u   1.00  1.00 -1.00 -1.00 -1.00 -1.00  1.00  1.00
B_2u   1.00 -1.00  1.00 -1.00 -1.00  1.00 -1.00  1.00
B_3u   1.00 -1.00 -1.00  1.00 -1.00  1.00  1.00 -1.00

     the symmetry operations in each class and the name of the first element:

     E        1
          identity                                               
     C2       2
          180 deg rotation - cart. axis [0,0,1]                  
     C2'      4
          180 deg rotation - cart. axis [1,0,0]                  
     C2''     3
          180 deg rotation - cart. axis [0,1,0]                  
     i        5
          inversion                                              
     s_v      6
          inv. 180 deg rotation - cart. axis [0,0,1]             
     s_v'     8
          inv. 180 deg rotation - cart. axis [1,0,0]             
     s_v''    7
          inv. 180 deg rotation - cart. axis [0,1,0]             

   Cartesian axes

     site n.     atom                  positions (alat units)
         1        Y      tau(   1) = (   0.5000000   0.5000000   1.5088451  )
         2        Ba     tau(   2) = (   0.5000000   0.5000000   0.5615829  )
         3        Ba     tau(   3) = (   0.5000000   0.5000000   2.4561072  )
         4        Cu     tau(   4) = (   0.0000000   0.0000000   0.0000000  )
         5        Cu     tau(   5) = (   0.0000000   0.0000000   1.0772132  )
         6        Cu     tau(   6) = (   0.0000000   0.0000000   1.9404769  )
         7        O      tau(   7) = (   0.5000000   0.0000000   1.1379760  )
         8        O      tau(   8) = (   0.5000000   0.0000000   1.8797141  )
         9        O      tau(   9) = (   0.0000000   0.5000000   1.1346923  )
        10        O      tau(  10) = (   0.0000000   0.5000000   1.8829979  )
        11        O      tau(  11) = (   0.0000000   0.0000000   0.4705240  )
        12        O      tau(  12) = (   0.0000000   0.0000000   2.5471662  )

   Crystallographic axes

     site n.     atom                  positions (cryst. coord.)
         1        Y      tau(   1) = (  0.5000000  0.5000000  0.5000000  )
         2        Ba     tau(   2) = (  0.5000000  0.5000000  0.1860969  )
         3        Ba     tau(   3) = (  0.5000000  0.5000000  0.8139031  )
         4        Cu     tau(   4) = (  0.0000000  0.0000000  0.0000000  )
         5        Cu     tau(   5) = (  0.0000000  0.0000000  0.3569661  )
         6        Cu     tau(   6) = (  0.0000000  0.0000000  0.6430339  )
         7        O      tau(   7) = (  0.5000000  0.0000000  0.3771017  )
         8        O      tau(   8) = (  0.5000000  0.0000000  0.6228983  )
         9        O      tau(   9) = (  0.0000000  0.5000000  0.3760135  )
        10        O      tau(  10) = (  0.0000000  0.5000000  0.6239865  )
        11        O      tau(  11) = (  0.0000000  0.0000000  0.1559219  )
        12        O      tau(  12) = (  0.0000000  0.0000000  0.8440781  )

     number of k points=     8  Methfessel-Paxton smearing, width (Ry)=  0.0100
                       cart. coord. in units 2pi/alat
        k(    1) = (   0.0000000   0.0000000   0.0000000), wk =   0.2500000
        k(    2) = (   0.0000000   0.0000000  -0.1656896), wk =   0.2500000
        k(    3) = (   0.0000000  -0.5000000   0.0000000), wk =   0.2500000
        k(    4) = (   0.0000000  -0.5000000  -0.1656896), wk =   0.2500000
        k(    5) = (  -0.5000000  -0.5000000   0.0000000), wk =   0.2500000
        k(    6) = (  -0.5000000  -0.5000000  -0.1656896), wk =   0.2500000
        k(    7) = (  -0.5000000   0.0000000   0.0000000), wk =   0.2500000
        k(    8) = (  -0.5000000   0.0000000   0.1656896), wk =   0.2500000

                       cryst. coord.
        k(    1) = (   0.0000000   0.0000000   0.0000000), wk =   0.2500000
        k(    2) = (   0.0000000   0.0000000  -0.5000000), wk =   0.2500000
        k(    3) = (   0.0000000  -0.5000000   0.0000000), wk =   0.2500000
        k(    4) = (   0.0000000  -0.5000000  -0.5000000), wk =   0.2500000
        k(    5) = (  -0.5000000  -0.5000000   0.0000000), wk =   0.2500000
        k(    6) = (  -0.5000000  -0.5000000  -0.5000000), wk =   0.2500000
        k(    7) = (  -0.5000000   0.0000000   0.0000000), wk =   0.2500000
        k(    8) = (  -0.5000000   0.0000000   0.5000000), wk =   0.2500000

     Dense  grid:   386249 G-vectors     FFT dimensions: (  64,  64, 192)

     Smooth grid:   136441 G-vectors     FFT dimensions: (  45,  45, 135)

     Dynamical RAM for                 wfc:       4.82 MB

     Dynamical RAM for     wfc (w. buffer):      43.36 MB

     Dynamical RAM for           str. fact:       5.89 MB

     Dynamical RAM for           local pot:       0.00 MB

     Dynamical RAM for          nlocal pot:      13.02 MB

     Dynamical RAM for                qrad:      16.07 MB

     Dynamical RAM for          rho,v,vnew:       8.92 MB

     Dynamical RAM for               rhoin:       2.97 MB

     Dynamical RAM for            rho*nmix:      23.57 MB

     Dynamical RAM for           G-vectors:       5.79 MB

     Dynamical RAM for          h,s,v(r/c):       1.00 MB

     Dynamical RAM for          <psi|beta>:       0.23 MB

     Dynamical RAM for                 psi:       9.64 MB

     Dynamical RAM for                hpsi:       9.64 MB

     Dynamical RAM for                spsi:       9.64 MB

     Dynamical RAM for      wfcinit/wfcrot:      13.52 MB

     Dynamical RAM for           addusdens:     527.48 MB

     Dynamical RAM for          addusforce:     542.99 MB

     Estimated static dynamical RAM per process >     110.90 MB

     Estimated max dynamical RAM per process >     677.46 MB

     Estimated total dynamical RAM >       2.65 GB

     Initial potential from superposition of free atoms

     starting charge     120.9655, renormalised to     124.0000

     negative rho (up, down):  1.937E-01 0.000E+00
     Starting wfcs are  102 randomized atomic wfcs

     total cpu time spent up to now is        2.3 secs

     Self-consistent Calculation

     iteration #  1     ecut=    90.00 Ry     beta= 0.10
     Davidson diagonalization with overlap

---- Real-time Memory Report at c_bands before calling an iterative solver
           679 MiB given to the printing process from OS
             0 MiB allocation reported by mallinfo(arena+hblkhd)
          7283 MiB available memory on the node where the printing process lives
------------------
     ethr =  1.00E-02,  avg # of iterations =  2.0

     negative rho (up, down):  1.915E-01 0.000E+00

     total cpu time spent up to now is        6.5 secs

     total energy              =   -1639.47559035 Ry
     estimated scf accuracy    <       1.77290376 Ry

     iteration #  2     ecut=    90.00 Ry     beta= 0.10
     Davidson diagonalization with overlap

---- Real-time Memory Report at c_bands before calling an iterative solver
           770 MiB given to the printing process from OS
             0 MiB allocation reported by mallinfo(arena+hblkhd)
          7240 MiB available memory on the node where the printing process lives
------------------
     ethr =  1.43E-03,  avg # of iterations =  2.0

     negative rho (up, down):  1.860E-01 0.000E+00

     total cpu time spent up to now is       10.7 secs

     total energy              =   -1639.18682033 Ry
     estimated scf accuracy    <       0.97734524 Ry

     iteration #  3     ecut=    90.00 Ry     beta= 0.10
     Davidson diagonalization with overlap

---- Real-time Memory Report at c_bands before calling an iterative solver
           777 MiB given to the printing process from OS
             0 MiB allocation reported by mallinfo(arena+hblkhd)
          7234 MiB available memory on the node where the printing process lives
------------------
     ethr =  7.88E-04,  avg # of iterations =  3.0

     negative rho (up, down):  1.861E-01 0.000E+00

     total cpu time spent up to now is       15.0 secs

     total energy              =   -1639.28558274 Ry
     estimated scf accuracy    <       0.93877984 Ry

     iteration #  4     ecut=    90.00 Ry     beta= 0.10
     Davidson diagonalization with overlap

---- Real-time Memory Report at c_bands before calling an iterative solver
           779 MiB given to the printing process from OS
             0 MiB allocation reported by mallinfo(arena+hblkhd)
          7220 MiB available memory on the node where the printing process lives
------------------
     ethr =  7.57E-04,  avg # of iterations =  1.1

     negative rho (up, down):  1.839E-01 0.000E+00

     total cpu time spent up to now is       18.9 secs

     total energy              =   -1639.31881540 Ry
     estimated scf accuracy    <       0.15897049 Ry

     iteration #  5     ecut=    90.00 Ry     beta= 0.10
     Davidson diagonalization with overlap

---- Real-time Memory Report at c_bands before calling an iterative solver
           780 MiB given to the printing process from OS
             0 MiB allocation reported by mallinfo(arena+hblkhd)
          7213 MiB available memory on the node where the printing process lives
------------------
     ethr =  1.28E-04,  avg # of iterations =  6.6

     negative rho (up, down):  1.779E-01 0.000E+00

     total cpu time spent up to now is       23.9 secs

     total energy              =   -1639.28704592 Ry
     estimated scf accuracy    <       0.09485573 Ry

     iteration #  6     ecut=    90.00 Ry     beta= 0.10
     Davidson diagonalization with overlap

---- Real-time Memory Report at c_bands before calling an iterative solver
           781 MiB given to the printing process from OS
             0 MiB allocation reported by mallinfo(arena+hblkhd)
          7205 MiB available memory on the node where the printing process lives
------------------
     ethr =  7.65E-05,  avg # of iterations =  8.0

     negative rho (up, down):  1.760E-01 0.000E+00

     total cpu time spent up to now is       29.4 secs

     total energy              =   -1639.27834455 Ry
     estimated scf accuracy    <       0.08149623 Ry

     iteration #  7     ecut=    90.00 Ry     beta= 0.10
     Davidson diagonalization with overlap

---- Real-time Memory Report at c_bands before calling an iterative solver
           782 MiB given to the printing process from OS
             0 MiB allocation reported by mallinfo(arena+hblkhd)
          7201 MiB available memory on the node where the printing process lives
------------------
     ethr =  6.57E-05,  avg # of iterations =  3.1

     negative rho (up, down):  1.751E-01 0.000E+00

     total cpu time spent up to now is       34.3 secs

     total energy              =   -1639.30662412 Ry
     estimated scf accuracy    <       0.04783484 Ry

     iteration #  8     ecut=    90.00 Ry     beta= 0.10
     Davidson diagonalization with overlap

---- Real-time Memory Report at c_bands before calling an iterative solver
           785 MiB given to the printing process from OS
             0 MiB allocation reported by mallinfo(arena+hblkhd)
          7194 MiB available memory on the node where the printing process lives
------------------
     ethr =  3.86E-05,  avg # of iterations =  3.8

     negative rho (up, down):  1.740E-01 0.000E+00

     total cpu time spent up to now is       39.4 secs

     total energy              =   -1639.29977583 Ry
     estimated scf accuracy    <       0.05663108 Ry

     iteration #  9     ecut=    90.00 Ry     beta= 0.10
     Davidson diagonalization with overlap

---- Real-time Memory Report at c_bands before calling an iterative solver
           786 MiB given to the printing process from OS
             0 MiB allocation reported by mallinfo(arena+hblkhd)
          7186 MiB available memory on the node where the printing process lives
------------------
     ethr =  3.86E-05,  avg # of iterations =  1.0

     negative rho (up, down):  1.736E-01 0.000E+00

     total cpu time spent up to now is       43.8 secs

     total energy              =   -1639.30121338 Ry
     estimated scf accuracy    <       0.02089461 Ry

     iteration # 10     ecut=    90.00 Ry     beta= 0.10
     Davidson diagonalization with overlap

---- Real-time Memory Report at c_bands before calling an iterative solver
           787 MiB given to the printing process from OS
             0 MiB allocation reported by mallinfo(arena+hblkhd)
          7179 MiB available memory on the node where the printing process lives
------------------
     ethr =  1.69E-05,  avg # of iterations =  2.6

     negative rho (up, down):  1.733E-01 0.000E+00

     total cpu time spent up to now is       48.5 secs

     total energy              =   -1639.29895941 Ry
     estimated scf accuracy    <       0.01651130 Ry

     iteration # 11     ecut=    90.00 Ry     beta= 0.10
     Davidson diagonalization with overlap

---- Real-time Memory Report at c_bands before calling an iterative solver
           788 MiB given to the printing process from OS
             0 MiB allocation reported by mallinfo(arena+hblkhd)
          7178 MiB available memory on the node where the printing process lives
------------------
     ethr =  1.33E-05,  avg # of iterations =  3.6

     negative rho (up, down):  1.733E-01 0.000E+00

     total cpu time spent up to now is       53.5 secs

     total energy              =   -1639.29896584 Ry
     estimated scf accuracy    <       0.00658437 Ry

     iteration # 12     ecut=    90.00 Ry     beta= 0.10
     Davidson diagonalization with overlap

---- Real-time Memory Report at c_bands before calling an iterative solver
           788 MiB given to the printing process from OS
             0 MiB allocation reported by mallinfo(arena+hblkhd)
          7179 MiB available memory on the node where the printing process lives
------------------
     c_bands:  1 eigenvalues not converged
     ethr =  5.31E-06,  avg # of iterations =  6.5

     negative rho (up, down):  1.732E-01 0.000E+00

     total cpu time spent up to now is       58.5 secs

     total energy              =   -1639.29856041 Ry
     estimated scf accuracy    <       0.00487947 Ry

     iteration # 13     ecut=    90.00 Ry     beta= 0.10
     Davidson diagonalization with overlap

---- Real-time Memory Report at c_bands before calling an iterative solver
           788 MiB given to the printing process from OS
             0 MiB allocation reported by mallinfo(arena+hblkhd)
          7181 MiB available memory on the node where the printing process lives
------------------
     ethr =  3.94E-06,  avg # of iterations =  3.5
     Minimization algorithm failed to find Fermi energy: reverting to bisection
     Possible cause: smearing is larger than the electronic band-gap.

     negative rho (up, down):  1.731E-01 0.000E+00

     total cpu time spent up to now is       63.3 secs

     total energy              =   -1639.29852011 Ry
     estimated scf accuracy    <       0.00066910 Ry

     iteration # 14     ecut=    90.00 Ry     beta= 0.10
     Davidson diagonalization with overlap

---- Real-time Memory Report at c_bands before calling an iterative solver
           788 MiB given to the printing process from OS
             0 MiB allocation reported by mallinfo(arena+hblkhd)
          7180 MiB available memory on the node where the printing process lives
------------------
     c_bands:  1 eigenvalues not converged
     ethr =  5.40E-07,  avg # of iterations =  4.8

     negative rho (up, down):  1.728E-01 0.000E+00

     total cpu time spent up to now is       68.7 secs

     total energy              =   -1639.29836527 Ry
     estimated scf accuracy    <       0.00456239 Ry

     iteration # 15     ecut=    90.00 Ry     beta= 0.10
     Davidson diagonalization with overlap

---- Real-time Memory Report at c_bands before calling an iterative solver
           788 MiB given to the printing process from OS
             0 MiB allocation reported by mallinfo(arena+hblkhd)
          7176 MiB available memory on the node where the printing process lives
------------------
     ethr =  5.40E-07,  avg # of iterations =  4.8

     negative rho (up, down):  1.728E-01 0.000E+00

     total cpu time spent up to now is       74.0 secs

     total energy              =   -1639.29820632 Ry
     estimated scf accuracy    <       0.00154504 Ry

     iteration # 16     ecut=    90.00 Ry     beta= 0.10
     Davidson diagonalization with overlap

---- Real-time Memory Report at c_bands before calling an iterative solver
           788 MiB given to the printing process from OS
             0 MiB allocation reported by mallinfo(arena+hblkhd)
          7176 MiB available memory on the node where the printing process lives
------------------
     ethr =  5.40E-07,  avg # of iterations =  1.4

     negative rho (up, down):  1.729E-01 0.000E+00

     total cpu time spent up to now is       78.6 secs

     total energy              =   -1639.29825723 Ry
     estimated scf accuracy    <       0.00073325 Ry

     iteration # 17     ecut=    90.00 Ry     beta= 0.10
     Davidson diagonalization with overlap

---- Real-time Memory Report at c_bands before calling an iterative solver
           788 MiB given to the printing process from OS
             0 MiB allocation reported by mallinfo(arena+hblkhd)
          7178 MiB available memory on the node where the printing process lives
------------------
     ethr =  5.40E-07,  avg # of iterations =  1.1

     negative rho (up, down):  1.728E-01 0.000E+00

     total cpu time spent up to now is       83.0 secs

     total energy              =   -1639.29817345 Ry
     estimated scf accuracy    <       0.00084351 Ry

     iteration # 18     ecut=    90.00 Ry     beta= 0.10
     Davidson diagonalization with overlap

---- Real-time Memory Report at c_bands before calling an iterative solver
           788 MiB given to the printing process from OS
             0 MiB allocation reported by mallinfo(arena+hblkhd)
          7181 MiB available memory on the node where the printing process lives
------------------
     ethr =  5.40E-07,  avg # of iterations =  1.2

     negative rho (up, down):  1.728E-01 0.000E+00

     total cpu time spent up to now is       87.6 secs

     total energy              =   -1639.29827417 Ry
     estimated scf accuracy    <       0.00015000 Ry

     iteration # 19     ecut=    90.00 Ry     beta= 0.10
     Davidson diagonalization with overlap

---- Real-time Memory Report at c_bands before calling an iterative solver
           788 MiB given to the printing process from OS
             0 MiB allocation reported by mallinfo(arena+hblkhd)
          7177 MiB available memory on the node where the printing process lives
------------------
     ethr =  1.21E-07,  avg # of iterations =  1.5

     negative rho (up, down):  1.728E-01 0.000E+00

     total cpu time spent up to now is       92.1 secs

     total energy              =   -1639.29829251 Ry
     estimated scf accuracy    <       0.00018190 Ry

     iteration # 20     ecut=    90.00 Ry     beta= 0.10
     Davidson diagonalization with overlap

---- Real-time Memory Report at c_bands before calling an iterative solver
           788 MiB given to the printing process from OS
             0 MiB allocation reported by mallinfo(arena+hblkhd)
          7176 MiB available memory on the node where the printing process lives
------------------
     ethr =  1.21E-07,  avg # of iterations =  1.0

     negative rho (up, down):  1.728E-01 0.000E+00

     total cpu time spent up to now is       96.4 secs

     total energy              =   -1639.29827515 Ry
     estimated scf accuracy    <       0.00012631 Ry

     iteration # 21     ecut=    90.00 Ry     beta= 0.10
     Davidson diagonalization with overlap

---- Real-time Memory Report at c_bands before calling an iterative solver
           788 MiB given to the printing process from OS
             0 MiB allocation reported by mallinfo(arena+hblkhd)
          7174 MiB available memory on the node where the printing process lives
------------------
     ethr =  1.02E-07,  avg # of iterations =  2.0

     negative rho (up, down):  1.728E-01 0.000E+00

     total cpu time spent up to now is      101.4 secs

     total energy              =   -1639.29830574 Ry
     estimated scf accuracy    <       0.00043763 Ry

     iteration # 22     ecut=    90.00 Ry     beta= 0.10
     Davidson diagonalization with overlap

---- Real-time Memory Report at c_bands before calling an iterative solver
           788 MiB given to the printing process from OS
             0 MiB allocation reported by mallinfo(arena+hblkhd)
          7174 MiB available memory on the node where the printing process lives
------------------
     ethr =  1.02E-07,  avg # of iterations =  1.0

     negative rho (up, down):  1.728E-01 0.000E+00

     total cpu time spent up to now is      105.9 secs

     total energy              =   -1639.29832389 Ry
     estimated scf accuracy    <       0.00003451 Ry

     iteration # 23     ecut=    90.00 Ry     beta= 0.10
     Davidson diagonalization with overlap

---- Real-time Memory Report at c_bands before calling an iterative solver
           788 MiB given to the printing process from OS
             0 MiB allocation reported by mallinfo(arena+hblkhd)
          7173 MiB available memory on the node where the printing process lives
------------------
     ethr =  2.78E-08,  avg # of iterations =  1.0

     negative rho (up, down):  1.728E-01 0.000E+00

     total cpu time spent up to now is      110.3 secs

     total energy              =   -1639.29833396 Ry
     estimated scf accuracy    <       0.00000534 Ry

     iteration # 24     ecut=    90.00 Ry     beta= 0.10
     Davidson diagonalization with overlap

---- Real-time Memory Report at c_bands before calling an iterative solver
           788 MiB given to the printing process from OS
             0 MiB allocation reported by mallinfo(arena+hblkhd)
          7172 MiB available memory on the node where the printing process lives
------------------
     ethr =  4.31E-09,  avg # of iterations =  2.0

     negative rho (up, down):  1.728E-01 0.000E+00

     total cpu time spent up to now is      115.3 secs

     total energy              =   -1639.29834036 Ry
     estimated scf accuracy    <       0.00002069 Ry

     iteration # 25     ecut=    90.00 Ry     beta= 0.10
     Davidson diagonalization with overlap

---- Real-time Memory Report at c_bands before calling an iterative solver
           788 MiB given to the printing process from OS
             0 MiB allocation reported by mallinfo(arena+hblkhd)
          7172 MiB available memory on the node where the printing process lives
------------------
     ethr =  4.31E-09,  avg # of iterations =  1.6

     negative rho (up, down):  1.728E-01 0.000E+00

     total cpu time spent up to now is      119.8 secs

     total energy              =   -1639.29834737 Ry
     estimated scf accuracy    <       0.00000298 Ry

     iteration # 26     ecut=    90.00 Ry     beta= 0.10
     Davidson diagonalization with overlap

---- Real-time Memory Report at c_bands before calling an iterative solver
           788 MiB given to the printing process from OS
             0 MiB allocation reported by mallinfo(arena+hblkhd)
          7171 MiB available memory on the node where the printing process lives
------------------
     ethr =  2.41E-09,  avg # of iterations =  1.0

     negative rho (up, down):  1.728E-01 0.000E+00

     total cpu time spent up to now is      124.2 secs

     total energy              =   -1639.29835190 Ry
     estimated scf accuracy    <       0.00000017 Ry

     iteration # 27     ecut=    90.00 Ry     beta= 0.10
     Davidson diagonalization with overlap

---- Real-time Memory Report at c_bands before calling an iterative solver
           788 MiB given to the printing process from OS
             0 MiB allocation reported by mallinfo(arena+hblkhd)
          7172 MiB available memory on the node where the printing process lives
------------------
     ethr =  1.39E-10,  avg # of iterations =  1.6

     negative rho (up, down):  1.728E-01 0.000E+00

     total cpu time spent up to now is      128.8 secs

     total energy              =   -1639.29835552 Ry
     estimated scf accuracy    <       0.00000002 Ry

     iteration # 28     ecut=    90.00 Ry     beta= 0.10
     Davidson diagonalization with overlap

---- Real-time Memory Report at c_bands before calling an iterative solver
           788 MiB given to the printing process from OS
             0 MiB allocation reported by mallinfo(arena+hblkhd)
          7173 MiB available memory on the node where the printing process lives
------------------
     ethr =  1.24E-11,  avg # of iterations =  2.2

     negative rho (up, down):  1.728E-01 0.000E+00

     total cpu time spent up to now is      134.0 secs

     total energy              =   -1639.29835844 Ry
     estimated scf accuracy    <       0.00000003 Ry

     iteration # 29     ecut=    90.00 Ry     beta= 0.10
     Davidson diagonalization with overlap

---- Real-time Memory Report at c_bands before calling an iterative solver
           788 MiB given to the printing process from OS
             0 MiB allocation reported by mallinfo(arena+hblkhd)
          7173 MiB available memory on the node where the printing process lives
------------------
     ethr =  1.24E-11,  avg # of iterations =  2.0

     negative rho (up, down):  1.728E-01 0.000E+00

     total cpu time spent up to now is      138.8 secs

     End of self-consistent calculation

          k = 0.0000 0.0000 0.0000 ( 17059 PWs)   bands (ev):

  -101.7048-101.7048-101.2890 -59.2318 -59.2318 -59.2276 -59.2275 -58.8347
   -58.8340 -58.8240 -58.6239 -58.6238 -30.6188 -15.9359 -15.9235 -11.0848
   -10.5964 -10.5926  -7.6585  -6.7873  -6.5916  -6.4752  -6.3372  -6.2275
    -1.3808  -1.1276  -0.8372  -0.8360  -0.8244  -0.8233   5.5347   5.7672
     5.7713   5.9211   6.0929   6.1038   6.9278   6.9873   7.4084   7.4089
     7.9118   8.0031   8.0338   8.0477   8.2305   8.2339   8.2489   8.2501
     8.2524   8.4171   8.5747   8.5855   8.6794   8.8753   8.9079   8.9185
     9.1725   9.2970   9.3163   9.4800   9.5480  10.1526  10.1539  12.6831
    13.4088  13.5755  13.7422  14.7986  15.3648  15.5690  15.5725  15.7048
    16.0973  16.4326

     occupation numbers 
     1.0000   1.0000   1.0000   1.0000   1.0000   1.0000   1.0000   1.0000
     1.0000   1.0000   1.0000   1.0000   1.0000   1.0000   1.0000   1.0000
     1.0000   1.0000   1.0000   1.0000   1.0000   1.0000   1.0000   1.0000
     1.0000   1.0000   1.0000   1.0000   1.0000   1.0000   1.0000   1.0000
     1.0000   1.0000   1.0000   1.0000   1.0000   1.0000   1.0000   1.0000
     1.0000   1.0000   1.0000   1.0000   1.0000   1.0000   1.0000   1.0000
     1.0000   1.0000   1.0000   1.0000   1.0000   1.0000   1.0000   1.0000
     1.0000   1.0000   1.0000   1.0000   1.0000   1.0355   1.0354  -0.0000
    -0.0000  -0.0000  -0.0000  -0.0000  -0.0000  -0.0000  -0.0000  -0.0000
    -0.0000  -0.0000

          k = 0.0000 0.0000-0.1657 ( 17050 PWs)   bands (ev):

  -101.7048-101.7048-101.2890 -59.2318 -59.2318 -59.2276 -59.2275 -58.8347
   -58.8340 -58.8240 -58.6239 -58.6238 -30.6188 -15.9370 -15.9224 -11.0850
   -10.5964 -10.5926  -7.6574  -6.7934  -6.5812  -6.4752  -6.3429  -6.2275
    -1.3522  -1.1579  -0.8388  -0.8376  -0.8228  -0.8216   5.5650   5.7669
     5.7711   5.9151   6.0931   6.1039   6.9395   6.9891   7.4082   7.4086
     7.6784   8.0031   8.0476   8.2056   8.2092   8.2182   8.2198   8.3190
     8.3251   8.4272   8.4637   8.4691   8.6794   9.0698   9.0927   9.1049
     9.1709   9.1744   9.1895   9.3547   9.4875  10.1573  10.1588  13.0764
    13.2496  13.5484  13.5811  14.7141  15.0943  15.5096  15.5105  15.7048
    15.9205  16.9961

     occupation numbers 
     1.0000   1.0000   1.0000   1.0000   1.0000   1.0000   1.0000   1.0000
     1.0000   1.0000   1.0000   1.0000   1.0000   1.0000   1.0000   1.0000
     1.0000   1.0000   1.0000   1.0000   1.0000   1.0000   1.0000   1.0000
     1.0000   1.0000   1.0000   1.0000   1.0000   1.0000   1.0000   1.0000
     1.0000   1.0000   1.0000   1.0000   1.0000   1.0000   1.0000   1.0000
     1.0000   1.0000   1.0000   1.0000   1.0000   1.0000   1.0000   1.0000
     1.0000   1.0000   1.0000   1.0000   1.0000   1.0000   1.0000   1.0000
     1.0000   1.0000   1.0000   1.0000   1.0000   1.0353   1.0351  -0.0000
    -0.0000  -0.0000  -0.0000  -0.0000  -0.0000  -0.0000  -0.0000  -0.0000
    -0.0000  -0.0000

          k = 0.0000-0.5000 0.0000 ( 17046 PWs)   bands (ev):

  -101.7048-101.7048-101.2890 -59.2319 -59.2318 -59.2275 -59.2275 -58.8347
   -58.8340 -58.8240 -58.6240 -58.6238 -30.6066 -15.8248 -15.8143 -11.1127
   -10.8666 -10.5790  -7.0342  -6.9693  -6.8930  -6.5987  -6.4049  -6.3295
    -1.3195  -1.1119  -0.9037  -0.8440  -0.6300  -0.6136   4.7156   4.9124
     5.5730   6.0406   6.2765   6.3016   6.5075   6.7297   6.8489   6.8508
     6.9156   7.1016   7.3209   7.4943   7.5082   7.6064   7.8763   8.1858
     8.2509   8.5734   8.5970   8.7589   8.7889   9.2853   9.3133   9.3221
     9.5518   9.6505   9.7426   9.8019   9.9368   9.9718  10.4984  12.0408
    14.2359  15.0962  15.5088  15.9322  16.2367  16.2532  16.2597  16.7148
    16.7814  17.0519

     occupation numbers 
     1.0000   1.0000   1.0000   1.0000   1.0000   1.0000   1.0000   1.0000
     1.0000   1.0000   1.0000   1.0000   1.0000   1.0000   1.0000   1.0000
     1.0000   1.0000   1.0000   1.0000   1.0000   1.0000   1.0000   1.0000
     1.0000   1.0000   1.0000   1.0000   1.0000   1.0000   1.0000   1.0000
     1.0000   1.0000   1.0000   1.0000   1.0000   1.0000   1.0000   1.0000
     1.0000   1.0000   1.0000   1.0000   1.0000   1.0000   1.0000   1.0000
     1.0000   1.0000   1.0000   1.0000   1.0000   1.0000   1.0000   1.0000
     1.0000   1.0000   1.0000   1.0000   1.0003   1.0009  -0.0343  -0.0000
    -0.0000  -0.0000  -0.0000  -0.0000  -0.0000  -0.0000  -0.0000  -0.0000
    -0.0000  -0.0000

          k = 0.0000-0.5000-0.1657 ( 17036 PWs)   bands (ev):

  -101.7048-101.7048-101.2890 -59.2319 -59.2318 -59.2275 -59.2275 -58.8347
   -58.8340 -58.8240 -58.6240 -58.6238 -30.6066 -15.8256 -15.8135 -11.1127
   -10.8667 -10.5790  -7.0993  -6.8922  -6.7809  -6.7621  -6.3647  -6.3303
    -1.3010  -1.1317  -0.9037  -0.8442  -0.6315  -0.6121   4.7553   4.8705
     5.5728   6.0097   6.2745   6.2968   6.7492   6.7954   6.8086   6.8436
     6.8515   7.0055   7.1670   7.3479   7.5083   7.7746   7.9205   8.1588
     8.3117   8.5625   8.5969   8.7983   8.8464   9.3134   9.3137   9.3680
     9.4386   9.6470   9.7419   9.8005   9.9484   9.9500  10.4221  12.0787
    14.2788  14.9960  15.5092  15.9433  16.0197  16.1943  16.2651  16.6553
    16.6816  17.2432

     occupation numbers 
     1.0000   1.0000   1.0000   1.0000   1.0000   1.0000   1.0000   1.0000
     1.0000   1.0000   1.0000   1.0000   1.0000   1.0000   1.0000   1.0000
     1.0000   1.0000   1.0000   1.0000   1.0000   1.0000   1.0000   1.0000
     1.0000   1.0000   1.0000   1.0000   1.0000   1.0000   1.0000   1.0000
     1.0000   1.0000   1.0000   1.0000   1.0000   1.0000   1.0000   1.0000
     1.0000   1.0000   1.0000   1.0000   1.0000   1.0000   1.0000   1.0000
     1.0000   1.0000   1.0000   1.0000   1.0000   1.0000   1.0000   1.0000
     1.0000   1.0000   1.0000   1.0000   1.0004   1.0004   0.0220  -0.0000
    -0.0000  -0.0000  -0.0000  -0.0000  -0.0000  -0.0000  -0.0000  -0.0000
    -0.0000  -0.0000

          k =-0.5000-0.5000 0.0000 ( 17104 PWs)   bands (ev):

  -101.7048-101.7048-101.2890 -59.2319 -59.2318 -59.2276 -59.2276 -58.8347
   -58.8339 -58.8240 -58.6240 -58.6239 -30.5948 -15.7398 -15.7295 -11.0690
   -11.0598 -10.6791  -6.7248  -6.7159  -6.6662  -6.4267  -6.2722  -6.2504
    -1.6018  -1.5979  -1.5762  -1.5725  -1.3029  -1.1038   3.5534   4.1649
     5.2084   5.4428   5.4901   5.6586   5.9600   6.7323   6.7424   7.0180
     7.0750   7.1018   7.4422   7.4423   8.2670   8.4910   8.5124   8.5135
     8.7920   9.1335   9.3581   9.5443   9.5780   9.5860   9.5972   9.6642
     9.6897   9.7255   9.7275  10.2252  10.2256  12.6352  12.7025  12.7106
    12.7164  13.5076  14.5007  15.6025  15.6133  15.7436  16.1365  16.2205
    17.4273  17.4373

     occupation numbers 
     1.0000   1.0000   1.0000   1.0000   1.0000   1.0000   1.0000   1.0000
     1.0000   1.0000   1.0000   1.0000   1.0000   1.0000   1.0000   1.0000
     1.0000   1.0000   1.0000   1.0000   1.0000   1.0000   1.0000   1.0000
     1.0000   1.0000   1.0000   1.0000   1.0000   1.0000   1.0000   1.0000
     1.0000   1.0000   1.0000   1.0000   1.0000   1.0000   1.0000   1.0000
     1.0000   1.0000   1.0000   1.0000   1.0000   1.0000   1.0000   1.0000
     1.0000   1.0000   1.0000   1.0000   1.0000   1.0000   1.0000   1.0000
     1.0000   1.0000   1.0000   0.9566   0.9555  -0.0000  -0.0000  -0.0000
    -0.0000  -0.0000  -0.0000  -0.0000  -0.0000  -0.0000  -0.0000  -0.0000
    -0.0000  -0.0000

          k =-0.5000-0.5000-0.1657 ( 17064 PWs)   bands (ev):

  -101.7048-101.7048-101.2890 -59.2319 -59.2318 -59.2276 -59.2276 -58.8347
   -58.8339 -58.8240 -58.6240 -58.6239 -30.5948 -15.7404 -15.7289 -11.0690
   -11.0598 -10.6791  -6.7248  -6.7159  -6.6661  -6.4268  -6.2722  -6.2503
    -1.6033  -1.5996  -1.5747  -1.5708  -1.2743  -1.1346   3.5771   4.1258
     5.2376   5.4428   5.4901   5.6729   5.9322   6.7369   6.7469   6.9821
     7.0733   7.1006   7.4389   7.4392   8.4916   8.5175   8.5182   8.5969
     8.7920   9.0020   9.1335   9.3602   9.5220   9.5413   9.6642   9.6832
     9.7742   9.7745   9.7764  10.2221  10.2227  12.6355  12.7025  12.7278
    12.7325  13.8392  14.6300  15.0623  15.7762  15.7944  15.7984  16.6038
    16.6846  16.6972

     occupation numbers 
     1.0000   1.0000   1.0000   1.0000   1.0000   1.0000   1.0000   1.0000
     1.0000   1.0000   1.0000   1.0000   1.0000   1.0000   1.0000   1.0000
     1.0000   1.0000   1.0000   1.0000   1.0000   1.0000   1.0000   1.0000
     1.0000   1.0000   1.0000   1.0000   1.0000   1.0000   1.0000   1.0000
     1.0000   1.0000   1.0000   1.0000   1.0000   1.0000   1.0000   1.0000
     1.0000   1.0000   1.0000   1.0000   1.0000   1.0000   1.0000   1.0000
     1.0000   1.0000   1.0000   1.0000   1.0000   1.0000   1.0000   1.0000
     1.0000   1.0000   1.0000   0.9646   0.9629  -0.0000  -0.0000  -0.0000
    -0.0000  -0.0000  -0.0000  -0.0000  -0.0000  -0.0000  -0.0000  -0.0000
    -0.0000  -0.0000

          k =-0.5000 0.0000 0.0000 ( 17046 PWs)   bands (ev):

  -101.7048-101.7048-101.2890 -59.2318 -59.2317 -59.2277 -59.2276 -58.8347
   -58.8340 -58.8240 -58.6239 -58.6239 -30.6067 -15.8247 -15.8141 -11.1035
   -10.8699 -10.5753  -7.0455  -6.9735  -6.8946  -6.5978  -6.4242  -6.3117
    -1.3233  -1.1155  -0.9003  -0.8408  -0.6311  -0.6148   4.7287   4.9328
     5.5714   6.0430   6.2717   6.3209   6.5141   6.7257   6.8465   6.8584
     6.9266   7.1239   7.3336   7.4926   7.5236   7.6005   7.8824   8.1755
     8.2509   8.5502   8.5970   8.7547   8.7649   9.2803   9.3002   9.3037
     9.5274   9.6507   9.7420   9.8001   9.9190   9.9724  10.4840  12.0444
    14.2354  15.1233  15.4785  15.9420  16.2269  16.2463  16.2861  16.7239
    16.7718  17.1103

     occupation numbers 
     1.0000   1.0000   1.0000   1.0000   1.0000   1.0000   1.0000   1.0000
     1.0000   1.0000   1.0000   1.0000   1.0000   1.0000   1.0000   1.0000
     1.0000   1.0000   1.0000   1.0000   1.0000   1.0000   1.0000   1.0000
     1.0000   1.0000   1.0000   1.0000   1.0000   1.0000   1.0000   1.0000
     1.0000   1.0000   1.0000   1.0000   1.0000   1.0000   1.0000   1.0000
     1.0000   1.0000   1.0000   1.0000   1.0000   1.0000   1.0000   1.0000
     1.0000   1.0000   1.0000   1.0000   1.0000   1.0000   1.0000   1.0000
     1.0000   1.0000   1.0000   1.0000   1.0001   1.0009  -0.0354  -0.0000
    -0.0000  -0.0000  -0.0000  -0.0000  -0.0000  -0.0000  -0.0000  -0.0000
    -0.0000  -0.0000

          k =-0.5000 0.0000 0.1657 ( 17036 PWs)   bands (ev):

  -101.7048-101.7048-101.2890 -59.2318 -59.2317 -59.2277 -59.2276 -58.8347
   -58.8340 -58.8240 -58.6239 -58.6239 -30.6067 -15.8255 -15.8133 -11.1035
   -10.8699 -10.5753  -7.1084  -6.8939  -6.7893  -6.7635  -6.3798  -6.3125
    -1.3045  -1.1357  -0.9004  -0.8408  -0.6326  -0.6132   4.7680   4.8908
     5.5712   6.0130   6.2697   6.3150   6.7619   6.7991   6.8081   6.8456
     6.8609   7.0022   7.1885   7.3596   7.5097   7.7753   7.9305   8.1461
     8.3144   8.5376   8.5969   8.7749   8.8431   9.2934   9.3006   9.3568
     9.4207   9.6468   9.7414   9.7988   9.9313   9.9517  10.4061  12.0813
    14.2779  15.0263  15.4788  15.9543  16.0133  16.1917  16.2951  16.6538
    16.6826  17.3071

     occupation numbers 
     1.0000   1.0000   1.0000   1.0000   1.0000   1.0000   1.0000   1.0000
     1.0000   1.0000   1.0000   1.0000   1.0000   1.0000   1.0000   1.0000
     1.0000   1.0000   1.0000   1.0000   1.0000   1.0000   1.0000   1.0000
     1.0000   1.0000   1.0000   1.0000   1.0000   1.0000   1.0000   1.0000
     1.0000   1.0000   1.0000   1.0000   1.0000   1.0000   1.0000   1.0000
     1.0000   1.0000   1.0000   1.0000   1.0000   1.0000   1.0000   1.0000
     1.0000   1.0000   1.0000   1.0000   1.0000   1.0000   1.0000   1.0000
     1.0000   1.0000   1.0000   1.0000   1.0002   1.0005   0.0633  -0.0000
    -0.0000  -0.0000  -0.0000  -0.0000  -0.0000  -0.0000  -0.0000  -0.0000
    -0.0000  -0.0000

     the Fermi energy is    10.3192 ev

!    total energy              =   -1639.29837089 Ry
     estimated scf accuracy    <          3.6E-09 Ry
     smearing contrib. (-TS)   =       0.00093379 Ry
     internal energy E=F+TS    =   -1639.29930467 Ry

     The total energy is F=E-TS. E is the sum of the following terms:
     one-electron contribution =   -1359.65026335 Ry
     hartree contribution      =     747.81569003 Ry
     xc contribution           =    -243.48288380 Ry
     ewald contribution        =    -783.98184755 Ry

     convergence has been achieved in  29 iterations

     negative rho (up, down):  1.728E-01 0.000E+00

     Forces acting on atoms (cartesian axes, Ry/au):

     atom    1 type  1   force =     0.00000000    0.00000000    0.00000000
     atom    2 type  2   force =     0.00000000    0.00000000    0.03570922
     atom    3 type  2   force =     0.00000000    0.00000000   -0.03570922
     atom    4 type  3   force =     0.00000000    0.00000000    0.00000000
     atom    5 type  3   force =     0.00000000    0.00000000    0.03590772
     atom    6 type  3   force =     0.00000000    0.00000000   -0.03590772
     atom    7 type  4   force =     0.00000000    0.00000000   -0.01563277
     atom    8 type  4   force =     0.00000000    0.00000000    0.01563277
     atom    9 type  4   force =     0.00000000    0.00000000   -0.01277571
     atom   10 type  4   force =     0.00000000    0.00000000    0.01277571
     atom   11 type  4   force =     0.00000000    0.00000000   -0.02791210
     atom   12 type  4   force =     0.00000000    0.00000000    0.02791210
     The non-local contrib.  to forces
     atom    1 type  1   force =     0.00000000    0.00000000    0.00000000
     atom    2 type  2   force =     0.00000000    0.00000000   -0.05735702
     atom    3 type  2   force =     0.00000000    0.00000000    0.05735702
     atom    4 type  3   force =     0.00000000    0.00000000    0.00000000
     atom    5 type  3   force =     0.00000000    0.00000000   -0.14039633
     atom    6 type  3   force =     0.00000000    0.00000000    0.14039633
     atom    7 type  4   force =     0.00000000    0.00000000    0.03766705
     atom    8 type  4   force =     0.00000000    0.00000000   -0.03766705
     atom    9 type  4   force =     0.00000000    0.00000000    0.05242024
     atom   10 type  4   force =     0.00000000    0.00000000   -0.05242024
     atom   11 type  4   force =     0.00000000    0.00000000   -0.54157350
     atom   12 type  4   force =     0.00000000    0.00000000    0.54157350
     The ionic contribution  to forces
     atom    1 type  1   force =     0.00000000    0.00000000    0.00000000
     atom    2 type  2   force =     0.00000000    0.00000000  -21.37416893
     atom    3 type  2   force =    -0.00000000   -0.00000000   21.37416893
     atom    4 type  3   force =     0.00000000    0.00000000    0.00000000
     atom    5 type  3   force =    -0.00000000   -0.00000000  -35.15142946
     atom    6 type  3   force =    -0.00000000   -0.00000000   35.15142946
     atom    7 type  4   force =     0.00000000   -0.00000000   -8.89928873
     atom    8 type  4   force =     0.00000000    0.00000000    8.89928873
     atom    9 type  4   force =    -0.00000000    0.00000000   -9.01629238
     atom   10 type  4   force =     0.00000000    0.00000000    9.01629238
     atom   11 type  4   force =     0.00000000    0.00000000   -3.31580921
     atom   12 type  4   force =     0.00000000    0.00000000    3.31580921
     The local contribution  to forces
     atom    1 type  1   force =     0.00000000    0.00000000    0.00000000
     atom    2 type  2   force =    -0.00000000   -0.00000000   21.46681373
     atom    3 type  2   force =     0.00000000    0.00000000  -21.46681373
     atom    4 type  3   force =    -0.00000000    0.00000000   -0.00000000
     atom    5 type  3   force =    -0.00000000   -0.00000000   35.32748515
     atom    6 type  3   force =    -0.00000000    0.00000000  -35.32748515
     atom    7 type  4   force =     0.00000000    0.00000000    8.84585137
     atom    8 type  4   force =    -0.00000000   -0.00000000   -8.84585137
     atom    9 type  4   force =    -0.00000000   -0.00000000    8.95110811
     atom   10 type  4   force =    -0.00000000   -0.00000000   -8.95110811
     atom   11 type  4   force =    -0.00000000   -0.00000000    3.82603942
     atom   12 type  4   force =    -0.00000000   -0.00000000   -3.82603942
     The core correction contribution to forces
     atom    1 type  1   force =    -0.00000000   -0.00000000   -0.00000000
     atom    2 type  2   force =    -0.00000000   -0.00000000    0.00040712
     atom    3 type  2   force =     0.00000000    0.00000000   -0.00040712
     atom    4 type  3   force =    -0.00000000   -0.00000000   -0.00000000
     atom    5 type  3   force =    -0.00000000   -0.00000000    0.00024803
     atom    6 type  3   force =    -0.00000000    0.00000000   -0.00024803
     atom    7 type  4   force =     0.00000000    0.00000000    0.00012128
     atom    8 type  4   force =    -0.00000000   -0.00000000   -0.00012128
     atom    9 type  4   force =     0.00000000   -0.00000000   -0.00001848
     atom   10 type  4   force =     0.00000000   -0.00000000    0.00001848
     atom   11 type  4   force =    -0.00000000    0.00000000    0.00339586
     atom   12 type  4   force =     0.00000000   -0.00000000   -0.00339586
     The Hubbard contrib.    to forces
     atom    1 type  1   force =     0.00000000    0.00000000    0.00000000
     atom    2 type  2   force =     0.00000000    0.00000000    0.00000000
     atom    3 type  2   force =     0.00000000    0.00000000    0.00000000
     atom    4 type  3   force =     0.00000000    0.00000000    0.00000000
     atom    5 type  3   force =     0.00000000    0.00000000    0.00000000
     atom    6 type  3   force =     0.00000000    0.00000000    0.00000000
     atom    7 type  4   force =     0.00000000    0.00000000    0.00000000
     atom    8 type  4   force =     0.00000000    0.00000000    0.00000000
     atom    9 type  4   force =     0.00000000    0.00000000    0.00000000
     atom   10 type  4   force =     0.00000000    0.00000000    0.00000000
     atom   11 type  4   force =     0.00000000    0.00000000    0.00000000
     atom   12 type  4   force =     0.00000000    0.00000000    0.00000000
     The SCF correction term to forces
     atom    1 type  1   force =    -0.00000000    0.00000000   -0.00000000
     atom    2 type  2   force =    -0.00000000   -0.00000000    0.00001432
     atom    3 type  2   force =    -0.00000000    0.00000000   -0.00001432
     atom    4 type  3   force =     0.00000000    0.00000000    0.00000000
     atom    5 type  3   force =    -0.00000000    0.00000000    0.00000033
     atom    6 type  3   force =    -0.00000000   -0.00000000   -0.00000033
     atom    7 type  4   force =     0.00000000    0.00000000    0.00001625
     atom    8 type  4   force =     0.00000000   -0.00000000   -0.00001625
     atom    9 type  4   force =    -0.00000000   -0.00000000    0.00000681
     atom   10 type  4   force =    -0.00000000    0.00000000   -0.00000681
     atom   11 type  4   force =    -0.00000000   -0.00000000    0.00003532
     atom   12 type  4   force =    -0.00000000    0.00000000   -0.00003532

     Total force =     0.086616     Total SCF correction =     0.000059

     Writing all to output data dir ./YBCO6/YBCO6.save/
 
     init_run     :      1.93s CPU      2.24s WALL (       1 calls)
     electrons    :    123.03s CPU    136.46s WALL (       1 calls)
     forces       :      1.46s CPU      1.68s WALL (       1 calls)

     Called by init_run:
     wfcinit      :      0.99s CPU      1.03s WALL (       1 calls)
     wfcinit:atom :      0.02s CPU      0.02s WALL (       8 calls)
     wfcinit:wfcr :      0.89s CPU      0.93s WALL (       8 calls)
     potinit      :      0.06s CPU      0.07s WALL (       1 calls)
     hinit0       :      0.26s CPU      0.27s WALL (       1 calls)

     Called by electrons:
     c_bands      :     65.27s CPU     66.82s WALL (      29 calls)
     sum_band     :     35.50s CPU     41.75s WALL (      29 calls)
     v_of_rho     :      1.83s CPU      1.89s WALL (      30 calls)
     v_h          :      0.16s CPU      0.17s WALL (      30 calls)
     v_xc         :      1.72s CPU      1.77s WALL (      31 calls)
     newd         :     20.50s CPU     26.31s WALL (      30 calls)
     mix_rho      :      0.36s CPU      0.37s WALL (      29 calls)

     Called by c_bands:
     init_us_2    :      1.46s CPU      1.49s WALL (     480 calls)
     init_us_2:cp :      1.45s CPU      1.49s WALL (     480 calls)
     cegterg      :     57.70s CPU     59.15s WALL (     232 calls)

     Called by sum_band:
     sum_band:wei :      0.01s CPU      0.01s WALL (      29 calls)
     sum_band:loo :     10.37s CPU     10.58s WALL (      29 calls)
     sum_band:buf :      0.24s CPU      0.25s WALL (     232 calls)
     sum_band:ini :      0.70s CPU      0.70s WALL (     232 calls)
     sum_band:cal :      2.28s CPU      2.32s WALL (     232 calls)
     sum_band:bec :      0.02s CPU      0.02s WALL (     232 calls)
     addusdens    :     24.83s CPU     30.82s WALL (      29 calls)
                                        0.00s GPU  (      29 calls)
     addusd:skk   :      0.11s CPU      0.11s WALL (     116 calls)
                                        0.00s GPU  (     116 calls)

     Called by *egterg:
     cdiaghg      :      2.46s CPU      2.48s WALL (     849 calls)
     cegterg:over :      4.29s CPU      4.35s WALL (     617 calls)
     cegterg:upda :      2.36s CPU      2.37s WALL (     617 calls)
     cegterg:last :      4.86s CPU      4.87s WALL (     383 calls)
     h_psi        :     36.17s CPU     37.05s WALL (     857 calls)
     s_psi        :      5.05s CPU      5.36s WALL (     857 calls)
     g_psi        :      0.16s CPU      0.16s WALL (     617 calls)

     Called by h_psi:
     h_psi:calbec :      5.35s CPU      5.44s WALL (     857 calls)
     vloc_psi     :     24.77s CPU     25.48s WALL (     857 calls)
     add_vuspsi   :      5.32s CPU      5.33s WALL (     857 calls)

     General routines
     calbec       :      7.94s CPU      8.08s WALL (    1121 calls)
     fft          :      0.99s CPU      1.05s WALL (     399 calls)
     ffts         :      0.04s CPU      0.04s WALL (      59 calls)
     fftw         :     23.82s CPU     24.47s WALL (   91352 calls)
     interpolate  :      0.10s CPU      0.11s WALL (      30 calls)
 
     Parallel routines
 
     PWSCF        :   2m 6.56s CPU   2m20.60s WALL

 
   This run was terminated on:   1:54:16  29Dec2023            

=------------------------------------------------------------------------------=
   JOB DONE.
=------------------------------------------------------------------------------=
