
     Program PWSCF v.7.2 starts on 29Dec2023 at  1:54:16 

     This program is part of the open-source Quantum ESPRESSO suite
     for quantum simulation of materials; please cite
         "P. Giannozzi et al., J. Phys.:Condens. Matter 21 395502 (2009);
         "P. Giannozzi et al., J. Phys.:Condens. Matter 29 465901 (2017);
         "P. Giannozzi et al., J. Chem. Phys. 152 154105 (2020);
          URL http://www.quantum-espresso.org", 
     in publications or presentations arising from this work. More details at
     http://www.quantum-espresso.org/quote

     Parallel version (MPI), running on     4 processors

     MPI processes distributed on     1 nodes
     7751 MiB available memory on the printing compute node when the environment starts
 
     Waiting for input...
     Reading input from standard input
Warning: card &IONS ignored
Warning: card / ignored
Warning: card &CELL ignored
Warning: card / ignored

     Current dimensions of program PWSCF are:
     Max number of different atomic species (ntypx) = 10
     Max number of k-points (npk) =  40000
     Max angular momentum in pseudopotentials (lmaxx) =  4

     Atomic positions and unit cell read from directory:
     ./YBCO6/YBCO6.save/
 
 
     R & G space division:  proc/nbgrp/npool/nimage =       4
     Subspace diagonalization in iterative solution of the eigenvalue problem:
     a serial algorithm will be used

 
     Parallelization info
     --------------------
     sticks:   dense  smooth     PW     G-vecs:    dense   smooth      PW
     Min         768     384    106                96560    34108    5043
     Max         770     386    108                96564    34112    5046
     Sum        3077    1541    429               386249   136441   20179
 
     Using Slab Decomposition
 


     bravais-lattice index     =            6
     lattice parameter (alat)  =       7.3208  a.u.
     unit-cell volume          =    1184.0154 (a.u.)^3
     number of atoms/cell      =           12
     number of atomic types    =            4
     number of electrons       =       124.00
     number of Kohn-Sham states=           74
     kinetic-energy cutoff     =      90.0000  Ry
     charge density cutoff     =     720.0000  Ry
     Exchange-correlation= SLA  PW   PBE  PBE
                           (   1   4   3   4   0   0   0)

     celldm(1)=   7.320840  celldm(2)=   0.000000  celldm(3)=   3.017690
     celldm(4)=   0.000000  celldm(5)=   0.000000  celldm(6)=   0.000000

     crystal axes: (cart. coord. in units of alat)
               a(1) = (   1.000000   0.000000   0.000000 )  
               a(2) = (   0.000000   1.000000   0.000000 )  
               a(3) = (   0.000000   0.000000   3.017690 )  

     reciprocal axes: (cart. coord. in units 2 pi/alat)
               b(1) = (  1.000000  0.000000  0.000000 )  
               b(2) = (  0.000000  1.000000  0.000000 )  
               b(3) = (  0.000000  0.000000  0.331379 )  


     PseudoPot. # 1 for Y  read from file:
     ~/q-e/pseudo/all_pbe_UPF_v1.5/y_pbe_v1.4.uspp.F.UPF
     MD5 check sum: Not computed, couldn't open file
     Pseudo is Ultrasoft + core correction, Zval = 11.0
     Generated by new atomic code, or converted to UPF format
     Using radial grid of  885 points,  6 beta functions with: 
                l(1) =   0
                l(2) =   0
                l(3) =   1
                l(4) =   1
                l(5) =   2
                l(6) =   2
     Q(r) pseudized with  8 coefficients,  rinner =    1.200   1.200   1.200
                                                       1.200   1.200

     PseudoPot. # 2 for Ba read from file:
     ~/q-e/pseudo/all_pbe_UPF_v1.5/ba_pbe_v1.uspp.F.UPF
     MD5 check sum: Not computed, couldn't open file
     Pseudo is Ultrasoft + core correction, Zval = 10.0
     Generated by new atomic code, or converted to UPF format
     Using radial grid of  907 points,  7 beta functions with: 
                l(1) =   0
                l(2) =   0
                l(3) =   1
                l(4) =   1
                l(5) =   2
                l(6) =   2
                l(7) =   3
     Q(r) pseudized with  6 coefficients,  rinner =    1.700   1.700   1.700
                                                       1.700   1.700   1.700
                                                       1.700

     PseudoPot. # 3 for Cu read from file:
     ~/q-e/pseudo/all_pbe_UPF_v1.5/cu_pbe_v1.2.uspp.F.UPF
     MD5 check sum: Not computed, couldn't open file
     Pseudo is Ultrasoft + core correction, Zval = 19.0
     Generated by new atomic code, or converted to UPF format
     Using radial grid of  867 points,  6 beta functions with: 
                l(1) =   0
                l(2) =   0
                l(3) =   1
                l(4) =   1
                l(5) =   2
                l(6) =   2
     Q(r) pseudized with  8 coefficients,  rinner =    1.150   1.150   1.150
                                                       1.150   1.150

     PseudoPot. # 4 for O  read from file:
     ~/q-e/pseudo/all_pbe_UPF_v1.5/o_pbe_v1.2.uspp.F.UPF
     MD5 check sum: Not computed, couldn't open file
     Pseudo is Ultrasoft + core correction, Zval =  6.0
     Generated by new atomic code, or converted to UPF format
     Using radial grid of  737 points,  5 beta functions with: 
                l(1) =   0
                l(2) =   0
                l(3) =   1
                l(4) =   1
                l(5) =   2
     Q(r) pseudized with  8 coefficients,  rinner =    0.900   0.900   0.900
                                                       0.900   0.900

     atomic species   valence    mass     pseudopotential
     Y                11.00    88.90584     Y ( 1.00)
     Ba               10.00   137.32700     Ba( 1.00)
     Cu               19.00    63.54600     Cu( 1.00)
     O                 6.00    15.99900     O ( 1.00)

      8 Sym. Ops., with inversion, found


                                    s                        frac. trans.

      isym =  1     identity                                     

 cryst.   s( 1) = (     1          0          0      )
                  (     0          1          0      )
                  (     0          0          1      )

 cart.    s( 1) = (  1.0000000  0.0000000  0.0000000 )
                  (  0.0000000  1.0000000  0.0000000 )
                  (  0.0000000  0.0000000  1.0000000 )


      isym =  2     180 deg rotation - cart. axis [0,0,1]        

 cryst.   s( 2) = (    -1          0          0      )
                  (     0         -1          0      )
                  (     0          0          1      )

 cart.    s( 2) = ( -1.0000000  0.0000000  0.0000000 )
                  (  0.0000000 -1.0000000  0.0000000 )
                  (  0.0000000  0.0000000  1.0000000 )


      isym =  3     180 deg rotation - cart. axis [0,1,0]        

 cryst.   s( 3) = (    -1          0          0      )
                  (     0          1          0      )
                  (     0          0         -1      )

 cart.    s( 3) = ( -1.0000000  0.0000000  0.0000000 )
                  (  0.0000000  1.0000000  0.0000000 )
                  (  0.0000000  0.0000000 -1.0000000 )


      isym =  4     180 deg rotation - cart. axis [1,0,0]        

 cryst.   s( 4) = (     1          0          0      )
                  (     0         -1          0      )
                  (     0          0         -1      )

 cart.    s( 4) = (  1.0000000  0.0000000  0.0000000 )
                  (  0.0000000 -1.0000000  0.0000000 )
                  (  0.0000000  0.0000000 -1.0000000 )


      isym =  5     inversion                                    

 cryst.   s( 5) = (    -1          0          0      )
                  (     0         -1          0      )
                  (     0          0         -1      )

 cart.    s( 5) = ( -1.0000000  0.0000000  0.0000000 )
                  (  0.0000000 -1.0000000  0.0000000 )
                  (  0.0000000  0.0000000 -1.0000000 )


      isym =  6     inv. 180 deg rotation - cart. axis [0,0,1]   

 cryst.   s( 6) = (     1          0          0      )
                  (     0          1          0      )
                  (     0          0         -1      )

 cart.    s( 6) = (  1.0000000  0.0000000  0.0000000 )
                  (  0.0000000  1.0000000  0.0000000 )
                  (  0.0000000  0.0000000 -1.0000000 )


      isym =  7     inv. 180 deg rotation - cart. axis [0,1,0]   

 cryst.   s( 7) = (     1          0          0      )
                  (     0         -1          0      )
                  (     0          0          1      )

 cart.    s( 7) = (  1.0000000  0.0000000  0.0000000 )
                  (  0.0000000 -1.0000000  0.0000000 )
                  (  0.0000000  0.0000000  1.0000000 )


      isym =  8     inv. 180 deg rotation - cart. axis [1,0,0]   

 cryst.   s( 8) = (    -1          0          0      )
                  (     0          1          0      )
                  (     0          0          1      )

 cart.    s( 8) = ( -1.0000000  0.0000000  0.0000000 )
                  (  0.0000000  1.0000000  0.0000000 )
                  (  0.0000000  0.0000000  1.0000000 )


     point group D_2h (mmm) 
     there are  8 classes
     the character table:

       E     C2    C2'   C2''  i     s_v   s_v'  s_v''
A_g    1.00  1.00  1.00  1.00  1.00  1.00  1.00  1.00
B_1g   1.00  1.00 -1.00 -1.00  1.00  1.00 -1.00 -1.00
B_2g   1.00 -1.00  1.00 -1.00  1.00 -1.00  1.00 -1.00
B_3g   1.00 -1.00 -1.00  1.00  1.00 -1.00 -1.00  1.00
A_u    1.00  1.00  1.00  1.00 -1.00 -1.00 -1.00 -1.00
B_1u   1.00  1.00 -1.00 -1.00 -1.00 -1.00  1.00  1.00
B_2u   1.00 -1.00  1.00 -1.00 -1.00  1.00 -1.00  1.00
B_3u   1.00 -1.00 -1.00  1.00 -1.00  1.00  1.00 -1.00

     the symmetry operations in each class and the name of the first element:

     E        1
          identity                                               
     C2       2
          180 deg rotation - cart. axis [0,0,1]                  
     C2'      4
          180 deg rotation - cart. axis [1,0,0]                  
     C2''     3
          180 deg rotation - cart. axis [0,1,0]                  
     i        5
          inversion                                              
     s_v      6
          inv. 180 deg rotation - cart. axis [0,0,1]             
     s_v'     8
          inv. 180 deg rotation - cart. axis [1,0,0]             
     s_v''    7
          inv. 180 deg rotation - cart. axis [0,1,0]             

   Cartesian axes

     site n.     atom                  positions (alat units)
         1        Y      tau(   1) = (   0.5000000   0.5000000   1.5088451  )
         2        Ba     tau(   2) = (   0.5000000   0.5000000   0.5615829  )
         3        Ba     tau(   3) = (   0.5000000   0.5000000   2.4561072  )
         4        Cu     tau(   4) = (   0.0000000   0.0000000   0.0000000  )
         5        Cu     tau(   5) = (   0.0000000   0.0000000   1.0772132  )
         6        Cu     tau(   6) = (   0.0000000   0.0000000   1.9404769  )
         7        O      tau(   7) = (   0.5000000   0.0000000   1.1379760  )
         8        O      tau(   8) = (   0.5000000   0.0000000   1.8797141  )
         9        O      tau(   9) = (   0.0000000   0.5000000   1.1346923  )
        10        O      tau(  10) = (   0.0000000   0.5000000   1.8829979  )
        11        O      tau(  11) = (   0.0000000   0.0000000   0.4705240  )
        12        O      tau(  12) = (   0.0000000   0.0000000   2.5471662  )

   Crystallographic axes

     site n.     atom                  positions (cryst. coord.)
         1        Y      tau(   1) = (  0.5000000  0.5000000  0.5000000  )
         2        Ba     tau(   2) = (  0.5000000  0.5000000  0.1860969  )
         3        Ba     tau(   3) = (  0.5000000  0.5000000  0.8139031  )
         4        Cu     tau(   4) = (  0.0000000  0.0000000  0.0000000  )
         5        Cu     tau(   5) = (  0.0000000  0.0000000  0.3569661  )
         6        Cu     tau(   6) = (  0.0000000  0.0000000  0.6430339  )
         7        O      tau(   7) = (  0.5000000  0.0000000  0.3771017  )
         8        O      tau(   8) = (  0.5000000  0.0000000  0.6228983  )
         9        O      tau(   9) = (  0.0000000  0.5000000  0.3760135  )
        10        O      tau(  10) = (  0.0000000  0.5000000  0.6239865  )
        11        O      tau(  11) = (  0.0000000  0.0000000  0.1559219  )
        12        O      tau(  12) = (  0.0000000  0.0000000  0.8440781  )

     number of k points=    64 (tetrahedron method)
                       cart. coord. in units 2pi/alat
        k(    1) = (   0.0625000   0.0625000   0.0207112), wk =   0.0312500
        k(    2) = (   0.0625000   0.0625000   0.0621336), wk =   0.0312500
        k(    3) = (   0.0625000   0.0625000   0.1035560), wk =   0.0312500
        k(    4) = (   0.0625000   0.0625000   0.1449784), wk =   0.0312500
        k(    5) = (   0.0625000   0.1875000   0.0207112), wk =   0.0312500
        k(    6) = (   0.0625000   0.1875000   0.0621336), wk =   0.0312500
        k(    7) = (   0.0625000   0.1875000   0.1035560), wk =   0.0312500
        k(    8) = (   0.0625000   0.1875000   0.1449784), wk =   0.0312500
        k(    9) = (   0.0625000   0.3125000   0.0207112), wk =   0.0312500
        k(   10) = (   0.0625000   0.3125000   0.0621336), wk =   0.0312500
        k(   11) = (   0.0625000   0.3125000   0.1035560), wk =   0.0312500
        k(   12) = (   0.0625000   0.3125000   0.1449784), wk =   0.0312500
        k(   13) = (   0.0625000   0.4375000   0.0207112), wk =   0.0312500
        k(   14) = (   0.0625000   0.4375000   0.0621336), wk =   0.0312500
        k(   15) = (   0.0625000   0.4375000   0.1035560), wk =   0.0312500
        k(   16) = (   0.0625000   0.4375000   0.1449784), wk =   0.0312500
        k(   17) = (   0.1875000   0.1875000   0.0207112), wk =   0.0312500
        k(   18) = (   0.1875000   0.1875000   0.0621336), wk =   0.0312500
        k(   19) = (   0.1875000   0.1875000   0.1035560), wk =   0.0312500
        k(   20) = (   0.1875000   0.1875000   0.1449784), wk =   0.0312500
        k(   21) = (   0.1875000   0.3125000   0.0207112), wk =   0.0312500
        k(   22) = (   0.1875000   0.3125000   0.0621336), wk =   0.0312500
        k(   23) = (   0.1875000   0.3125000   0.1035560), wk =   0.0312500
        k(   24) = (   0.1875000   0.3125000   0.1449784), wk =   0.0312500
        k(   25) = (   0.1875000   0.4375000   0.0207112), wk =   0.0312500
        k(   26) = (   0.1875000   0.4375000   0.0621336), wk =   0.0312500
        k(   27) = (   0.1875000   0.4375000   0.1035560), wk =   0.0312500
        k(   28) = (   0.1875000   0.4375000   0.1449784), wk =   0.0312500
        k(   29) = (   0.3125000   0.3125000   0.0207112), wk =   0.0312500
        k(   30) = (   0.3125000   0.3125000   0.0621336), wk =   0.0312500
        k(   31) = (   0.3125000   0.3125000   0.1035560), wk =   0.0312500
        k(   32) = (   0.3125000   0.3125000   0.1449784), wk =   0.0312500
        k(   33) = (   0.3125000   0.4375000   0.0207112), wk =   0.0312500
        k(   34) = (   0.3125000   0.4375000   0.0621336), wk =   0.0312500
        k(   35) = (   0.3125000   0.4375000   0.1035560), wk =   0.0312500
        k(   36) = (   0.3125000   0.4375000   0.1449784), wk =   0.0312500
        k(   37) = (   0.4375000   0.4375000   0.0207112), wk =   0.0312500
        k(   38) = (   0.4375000   0.4375000   0.0621336), wk =   0.0312500
        k(   39) = (   0.4375000   0.4375000   0.1035560), wk =   0.0312500
        k(   40) = (   0.4375000   0.4375000   0.1449784), wk =   0.0312500
        k(   41) = (   0.1875000   0.0625000  -0.0207112), wk =   0.0312500
        k(   42) = (   0.1875000   0.0625000  -0.0621336), wk =   0.0312500
        k(   43) = (   0.1875000   0.0625000  -0.1035560), wk =   0.0312500
        k(   44) = (   0.1875000   0.0625000  -0.1449784), wk =   0.0312500
        k(   45) = (   0.3125000   0.0625000  -0.0207112), wk =   0.0312500
        k(   46) = (   0.3125000   0.0625000  -0.0621336), wk =   0.0312500
        k(   47) = (   0.3125000   0.0625000  -0.1035560), wk =   0.0312500
        k(   48) = (   0.3125000   0.0625000  -0.1449784), wk =   0.0312500
        k(   49) = (   0.4375000   0.0625000  -0.0207112), wk =   0.0312500
        k(   50) = (   0.4375000   0.0625000  -0.0621336), wk =   0.0312500
        k(   51) = (   0.4375000   0.0625000  -0.1035560), wk =   0.0312500
        k(   52) = (   0.4375000   0.0625000  -0.1449784), wk =   0.0312500
        k(   53) = (   0.3125000   0.1875000  -0.0207112), wk =   0.0312500
        k(   54) = (   0.3125000   0.1875000  -0.0621336), wk =   0.0312500
        k(   55) = (   0.3125000   0.1875000  -0.1035560), wk =   0.0312500
        k(   56) = (   0.3125000   0.1875000  -0.1449784), wk =   0.0312500
        k(   57) = (   0.4375000   0.1875000  -0.0207112), wk =   0.0312500
        k(   58) = (   0.4375000   0.1875000  -0.0621336), wk =   0.0312500
        k(   59) = (   0.4375000   0.1875000  -0.1035560), wk =   0.0312500
        k(   60) = (   0.4375000   0.1875000  -0.1449784), wk =   0.0312500
        k(   61) = (   0.4375000   0.3125000  -0.0207112), wk =   0.0312500
        k(   62) = (   0.4375000   0.3125000  -0.0621336), wk =   0.0312500
        k(   63) = (   0.4375000   0.3125000  -0.1035560), wk =   0.0312500
        k(   64) = (   0.4375000   0.3125000  -0.1449784), wk =   0.0312500

                       cryst. coord.
        k(    1) = (   0.0625000   0.0625000   0.0625000), wk =   0.0312500
        k(    2) = (   0.0625000   0.0625000   0.1875000), wk =   0.0312500
        k(    3) = (   0.0625000   0.0625000   0.3125000), wk =   0.0312500
        k(    4) = (   0.0625000   0.0625000   0.4375000), wk =   0.0312500
        k(    5) = (   0.0625000   0.1875000   0.0625000), wk =   0.0312500
        k(    6) = (   0.0625000   0.1875000   0.1875000), wk =   0.0312500
        k(    7) = (   0.0625000   0.1875000   0.3125000), wk =   0.0312500
        k(    8) = (   0.0625000   0.1875000   0.4375000), wk =   0.0312500
        k(    9) = (   0.0625000   0.3125000   0.0625000), wk =   0.0312500
        k(   10) = (   0.0625000   0.3125000   0.1875000), wk =   0.0312500
        k(   11) = (   0.0625000   0.3125000   0.3125000), wk =   0.0312500
        k(   12) = (   0.0625000   0.3125000   0.4375000), wk =   0.0312500
        k(   13) = (   0.0625000   0.4375000   0.0625000), wk =   0.0312500
        k(   14) = (   0.0625000   0.4375000   0.1875000), wk =   0.0312500
        k(   15) = (   0.0625000   0.4375000   0.3125000), wk =   0.0312500
        k(   16) = (   0.0625000   0.4375000   0.4375000), wk =   0.0312500
        k(   17) = (   0.1875000   0.1875000   0.0625000), wk =   0.0312500
        k(   18) = (   0.1875000   0.1875000   0.1875000), wk =   0.0312500
        k(   19) = (   0.1875000   0.1875000   0.3125000), wk =   0.0312500
        k(   20) = (   0.1875000   0.1875000   0.4375000), wk =   0.0312500
        k(   21) = (   0.1875000   0.3125000   0.0625000), wk =   0.0312500
        k(   22) = (   0.1875000   0.3125000   0.1875000), wk =   0.0312500
        k(   23) = (   0.1875000   0.3125000   0.3125000), wk =   0.0312500
        k(   24) = (   0.1875000   0.3125000   0.4375000), wk =   0.0312500
        k(   25) = (   0.1875000   0.4375000   0.0625000), wk =   0.0312500
        k(   26) = (   0.1875000   0.4375000   0.1875000), wk =   0.0312500
        k(   27) = (   0.1875000   0.4375000   0.3125000), wk =   0.0312500
        k(   28) = (   0.1875000   0.4375000   0.4375000), wk =   0.0312500
        k(   29) = (   0.3125000   0.3125000   0.0625000), wk =   0.0312500
        k(   30) = (   0.3125000   0.3125000   0.1875000), wk =   0.0312500
        k(   31) = (   0.3125000   0.3125000   0.3125000), wk =   0.0312500
        k(   32) = (   0.3125000   0.3125000   0.4375000), wk =   0.0312500
        k(   33) = (   0.3125000   0.4375000   0.0625000), wk =   0.0312500
        k(   34) = (   0.3125000   0.4375000   0.1875000), wk =   0.0312500
        k(   35) = (   0.3125000   0.4375000   0.3125000), wk =   0.0312500
        k(   36) = (   0.3125000   0.4375000   0.4375000), wk =   0.0312500
        k(   37) = (   0.4375000   0.4375000   0.0625000), wk =   0.0312500
        k(   38) = (   0.4375000   0.4375000   0.1875000), wk =   0.0312500
        k(   39) = (   0.4375000   0.4375000   0.3125000), wk =   0.0312500
        k(   40) = (   0.4375000   0.4375000   0.4375000), wk =   0.0312500
        k(   41) = (   0.1875000   0.0625000  -0.0625000), wk =   0.0312500
        k(   42) = (   0.1875000   0.0625000  -0.1875000), wk =   0.0312500
        k(   43) = (   0.1875000   0.0625000  -0.3125000), wk =   0.0312500
        k(   44) = (   0.1875000   0.0625000  -0.4375000), wk =   0.0312500
        k(   45) = (   0.3125000   0.0625000  -0.0625000), wk =   0.0312500
        k(   46) = (   0.3125000   0.0625000  -0.1875000), wk =   0.0312500
        k(   47) = (   0.3125000   0.0625000  -0.3125000), wk =   0.0312500
        k(   48) = (   0.3125000   0.0625000  -0.4375000), wk =   0.0312500
        k(   49) = (   0.4375000   0.0625000  -0.0625000), wk =   0.0312500
        k(   50) = (   0.4375000   0.0625000  -0.1875000), wk =   0.0312500
        k(   51) = (   0.4375000   0.0625000  -0.3125000), wk =   0.0312500
        k(   52) = (   0.4375000   0.0625000  -0.4375000), wk =   0.0312500
        k(   53) = (   0.3125000   0.1875000  -0.0625000), wk =   0.0312500
        k(   54) = (   0.3125000   0.1875000  -0.1875000), wk =   0.0312500
        k(   55) = (   0.3125000   0.1875000  -0.3125000), wk =   0.0312500
        k(   56) = (   0.3125000   0.1875000  -0.4375000), wk =   0.0312500
        k(   57) = (   0.4375000   0.1875000  -0.0625000), wk =   0.0312500
        k(   58) = (   0.4375000   0.1875000  -0.1875000), wk =   0.0312500
        k(   59) = (   0.4375000   0.1875000  -0.3125000), wk =   0.0312500
        k(   60) = (   0.4375000   0.1875000  -0.4375000), wk =   0.0312500
        k(   61) = (   0.4375000   0.3125000  -0.0625000), wk =   0.0312500
        k(   62) = (   0.4375000   0.3125000  -0.1875000), wk =   0.0312500
        k(   63) = (   0.4375000   0.3125000  -0.3125000), wk =   0.0312500
        k(   64) = (   0.4375000   0.3125000  -0.4375000), wk =   0.0312500

     Dense  grid:   386249 G-vectors     FFT dimensions: (  64,  64, 192)

     Smooth grid:   136441 G-vectors     FFT dimensions: (  45,  45, 135)

     Dynamical RAM for                 wfc:       4.82 MB

     Dynamical RAM for     wfc (w. buffer):       4.82 MB

     Dynamical RAM for           str. fact:       5.89 MB

     Dynamical RAM for           local pot:       0.00 MB

     Dynamical RAM for          nlocal pot:      13.02 MB

     Dynamical RAM for                qrad:      16.07 MB

     Dynamical RAM for          rho,v,vnew:       8.92 MB

     Dynamical RAM for           G-vectors:       5.79 MB

     Dynamical RAM for          h,s,v(r/c):       1.00 MB

     Dynamical RAM for          <psi|beta>:       0.23 MB

     Dynamical RAM for                 psi:       9.64 MB

     Dynamical RAM for                hpsi:       9.64 MB

     Dynamical RAM for                spsi:       9.64 MB

     Dynamical RAM for      wfcinit/wfcrot:      13.52 MB

     Dynamical RAM for           addusdens:     527.48 MB

     Estimated static dynamical RAM per process >      69.38 MB

     Estimated max dynamical RAM per process >     596.86 MB

     Estimated total dynamical RAM >       2.33 GB

     The potential is recalculated from file :
     ./YBCO6/YBCO6.save/charge-density


     negative rho (up, down):  1.728E-01 0.000E+00
     Starting wfcs are  102 randomized atomic wfcs

     Band Structure Calculation
     Davidson diagonalization with overlap

     Computing kpt #:     1  of    64
     total cpu time spent up to now is        5.3 secs

     Computing kpt #:     2  of    64
     total cpu time spent up to now is        9.0 secs

     Computing kpt #:     3  of    64
     total cpu time spent up to now is       13.0 secs

     Computing kpt #:     4  of    64
     c_bands:  1 eigenvalues not converged
     total cpu time spent up to now is       17.9 secs

     Computing kpt #:     5  of    64
     total cpu time spent up to now is       22.2 secs

     Computing kpt #:     6  of    64
     total cpu time spent up to now is       26.3 secs

     Computing kpt #:     7  of    64
     total cpu time spent up to now is       30.3 secs

     Computing kpt #:     8  of    64
     total cpu time spent up to now is       34.4 secs

     Computing kpt #:     9  of    64
     total cpu time spent up to now is       38.6 secs

     Computing kpt #:    10  of    64
     total cpu time spent up to now is       43.3 secs

     Computing kpt #:    11  of    64
     c_bands:  1 eigenvalues not converged
     total cpu time spent up to now is       48.2 secs

     Computing kpt #:    12  of    64
     total cpu time spent up to now is       52.8 secs

     Computing kpt #:    13  of    64
     total cpu time spent up to now is       56.9 secs

     Computing kpt #:    14  of    64
     total cpu time spent up to now is       61.4 secs

     Computing kpt #:    15  of    64
     total cpu time spent up to now is       65.4 secs

     Computing kpt #:    16  of    64
     total cpu time spent up to now is       69.4 secs

     Computing kpt #:    17  of    64
     total cpu time spent up to now is       73.6 secs

     Computing kpt #:    18  of    64
     total cpu time spent up to now is       77.7 secs

     Computing kpt #:    19  of    64
     total cpu time spent up to now is       81.6 secs

     Computing kpt #:    20  of    64
     total cpu time spent up to now is       85.4 secs

     Computing kpt #:    21  of    64
     total cpu time spent up to now is       89.5 secs

     Computing kpt #:    22  of    64
     total cpu time spent up to now is       93.6 secs

     Computing kpt #:    23  of    64
     total cpu time spent up to now is       97.8 secs

     Computing kpt #:    24  of    64
     total cpu time spent up to now is      101.6 secs

     Computing kpt #:    25  of    64
     c_bands:  1 eigenvalues not converged
     total cpu time spent up to now is      106.7 secs

     Computing kpt #:    26  of    64
     total cpu time spent up to now is      111.0 secs

     Computing kpt #:    27  of    64
     total cpu time spent up to now is      115.6 secs

     Computing kpt #:    28  of    64
     total cpu time spent up to now is      120.2 secs

     Computing kpt #:    29  of    64
     c_bands:  1 eigenvalues not converged
     total cpu time spent up to now is      125.3 secs

     Computing kpt #:    30  of    64
     total cpu time spent up to now is      129.8 secs

     Computing kpt #:    31  of    64
     total cpu time spent up to now is      134.4 secs

     Computing kpt #:    32  of    64
     total cpu time spent up to now is      138.6 secs

     Computing kpt #:    33  of    64
     total cpu time spent up to now is      142.8 secs

     Computing kpt #:    34  of    64
     total cpu time spent up to now is      146.9 secs

     Computing kpt #:    35  of    64
     total cpu time spent up to now is      150.9 secs

     Computing kpt #:    36  of    64
     total cpu time spent up to now is      154.4 secs

     Computing kpt #:    37  of    64
     total cpu time spent up to now is      158.0 secs

     Computing kpt #:    38  of    64
     total cpu time spent up to now is      161.5 secs

     Computing kpt #:    39  of    64
     total cpu time spent up to now is      164.6 secs

     Computing kpt #:    40  of    64
     total cpu time spent up to now is      167.8 secs

     Computing kpt #:    41  of    64
     total cpu time spent up to now is      172.0 secs

     Computing kpt #:    42  of    64
     total cpu time spent up to now is      175.9 secs

     Computing kpt #:    43  of    64
     total cpu time spent up to now is      179.8 secs

     Computing kpt #:    44  of    64
     total cpu time spent up to now is      183.7 secs

     Computing kpt #:    45  of    64
     total cpu time spent up to now is      187.9 secs

     Computing kpt #:    46  of    64
     total cpu time spent up to now is      192.5 secs

     Computing kpt #:    47  of    64
     c_bands:  1 eigenvalues not converged
     total cpu time spent up to now is      197.5 secs

     Computing kpt #:    48  of    64
     total cpu time spent up to now is      202.2 secs

     Computing kpt #:    49  of    64
     total cpu time spent up to now is      206.4 secs

     Computing kpt #:    50  of    64
     total cpu time spent up to now is      210.9 secs

     Computing kpt #:    51  of    64
     total cpu time spent up to now is      215.0 secs

     Computing kpt #:    52  of    64
     total cpu time spent up to now is      219.0 secs

     Computing kpt #:    53  of    64
     total cpu time spent up to now is      223.2 secs

     Computing kpt #:    54  of    64
     total cpu time spent up to now is      227.3 secs

     Computing kpt #:    55  of    64
     total cpu time spent up to now is      231.4 secs

     Computing kpt #:    56  of    64
     total cpu time spent up to now is      235.4 secs

     Computing kpt #:    57  of    64
     total cpu time spent up to now is      240.5 secs

     Computing kpt #:    58  of    64
     total cpu time spent up to now is      245.0 secs

     Computing kpt #:    59  of    64
     total cpu time spent up to now is      249.5 secs

     Computing kpt #:    60  of    64
     total cpu time spent up to now is      254.1 secs

     Computing kpt #:    61  of    64
     total cpu time spent up to now is      258.2 secs

     Computing kpt #:    62  of    64
     total cpu time spent up to now is      262.4 secs

     Computing kpt #:    63  of    64
     total cpu time spent up to now is      266.2 secs

     Computing kpt #:    64  of    64
     total cpu time spent up to now is      269.8 secs

     ethr =  8.06E-12,  avg # of iterations = 75.6

     total cpu time spent up to now is      269.9 secs

     End of band structure calculation

          k = 0.0625 0.0625 0.0207 ( 17033 PWs)   bands (ev):

  -101.7053-101.7053-101.2887 -59.2323 -59.2322 -59.2281 -59.2280 -58.8351
   -58.8344 -58.8237 -58.6236 -58.6234 -30.6180 -15.9276 -15.9153 -11.0697
   -10.6199 -10.6140  -7.6043  -6.7893  -6.6137  -6.4647  -6.3602  -6.2479
    -1.3760  -1.1308  -0.8692  -0.8546  -0.7982  -0.7805   5.5087   5.7319
     5.7856   5.9133   6.0627   6.0706   6.9053   6.9881   7.3266   7.4036
     7.7090   7.8352   7.9748   8.0352   8.0437   8.2323   8.2626   8.4061
     8.4325   8.4686   8.5799   8.6120   8.6737   8.7166   8.8457   8.9229
     8.9756   9.2189   9.5952   9.6190   9.7426  10.0763  10.1574  12.7980
    13.5518  13.5851  13.8819  14.8522  15.3722  15.5203  15.6388  15.6952
    16.2222  16.5446

     occupation numbers 
     1.0000   1.0000   1.0000   1.0000   1.0000   1.0000   1.0000   1.0000
     1.0000   1.0000   1.0000   1.0000   1.0000   1.0000   1.0000   1.0000
     1.0000   1.0000   1.0000   1.0000   1.0000   1.0000   1.0000   1.0000
     1.0000   1.0000   1.0000   1.0000   1.0000   1.0000   1.0000   1.0000
     1.0000   1.0000   1.0000   1.0000   1.0000   1.0000   1.0000   1.0000
     1.0000   1.0000   1.0000   1.0000   1.0000   1.0000   1.0000   1.0000
     1.0000   1.0000   1.0000   1.0000   1.0000   1.0000   1.0000   1.0000
     1.0000   1.0000   1.0000   1.0000   1.0000   1.0000   1.0000   0.0000
     0.0000   0.0000   0.0000   0.0000   0.0000   0.0000   0.0000   0.0000
     0.0000   0.0000

          k = 0.0625 0.0625 0.0621 ( 17044 PWs)   bands (ev):

  -101.7053-101.7053-101.2887 -59.2323 -59.2322 -59.2281 -59.2280 -58.8351
   -58.8344 -58.8237 -58.6236 -58.6234 -30.6180 -15.9279 -15.9150 -11.0698
   -10.6199 -10.6140  -7.6040  -6.7918  -6.6097  -6.4647  -6.3622  -6.2479
    -1.3696  -1.1377  -0.8693  -0.8544  -0.7985  -0.7802   5.5164   5.7358
     5.7855   5.9007   6.0651   6.0733   6.9125   6.9885   7.3287   7.4036
     7.6643   7.8392   7.9275   8.0337   8.1155   8.2381   8.2718   8.4010
     8.4256   8.4490   8.5572   8.5956   8.6739   8.7646   8.8803   8.9574
     8.9711   9.2060   9.5550   9.6006   9.7526  10.0754  10.1586  12.8568
    13.5539  13.5750  13.8519  14.8056  15.3769  15.4160  15.6786  15.7018
    16.0860  16.7856

     occupation numbers 
     1.0000   1.0000   1.0000   1.0000   1.0000   1.0000   1.0000   1.0000
     1.0000   1.0000   1.0000   1.0000   1.0000   1.0000   1.0000   1.0000
     1.0000   1.0000   1.0000   1.0000   1.0000   1.0000   1.0000   1.0000
     1.0000   1.0000   1.0000   1.0000   1.0000   1.0000   1.0000   1.0000
     1.0000   1.0000   1.0000   1.0000   1.0000   1.0000   1.0000   1.0000
     1.0000   1.0000   1.0000   1.0000   1.0000   1.0000   1.0000   1.0000
     1.0000   1.0000   1.0000   1.0000   1.0000   1.0000   1.0000   1.0000
     1.0000   1.0000   1.0000   1.0000   1.0000   1.0000   1.0000   0.0000
     0.0000   0.0000   0.0000   0.0000   0.0000   0.0000   0.0000   0.0000
     0.0000   0.0000

          k = 0.0625 0.0625 0.1036 ( 17037 PWs)   bands (ev):

  -101.7053-101.7053-101.2887 -59.2323 -59.2322 -59.2281 -59.2280 -58.8351
   -58.8344 -58.8237 -58.6236 -58.6234 -30.6180 -15.9283 -15.9145 -11.0698
   -10.6199 -10.6140  -7.6036  -6.7951  -6.6041  -6.4647  -6.3650  -6.2479
    -1.3597  -1.1483  -0.8695  -0.8543  -0.7989  -0.7797   5.5274   5.7453
     5.7854   5.8778   6.0666   6.0799   6.9243   6.9892   7.3336   7.4037
     7.6006   7.8434   7.9027   8.0316   8.1714   8.2538   8.2890   8.3877
     8.4081   8.4241   8.5336   8.5871   8.6740   8.8232   8.9267   8.9517
     9.0201   9.1878   9.4878   9.5772   9.7636  10.0742  10.1604  12.9582
    13.4896  13.6145  13.7994  14.7857  15.2224  15.3827  15.6808  15.7639
    16.0398  16.9703

     occupation numbers 
     1.0000   1.0000   1.0000   1.0000   1.0000   1.0000   1.0000   1.0000
     1.0000   1.0000   1.0000   1.0000   1.0000   1.0000   1.0000   1.0000
     1.0000   1.0000   1.0000   1.0000   1.0000   1.0000   1.0000   1.0000
     1.0000   1.0000   1.0000   1.0000   1.0000   1.0000   1.0000   1.0000
     1.0000   1.0000   1.0000   1.0000   1.0000   1.0000   1.0000   1.0000
     1.0000   1.0000   1.0000   1.0000   1.0000   1.0000   1.0000   1.0000
     1.0000   1.0000   1.0000   1.0000   1.0000   1.0000   1.0000   1.0000
     1.0000   1.0000   1.0000   1.0000   1.0000   1.0000   1.0000   0.0000
     0.0000   0.0000   0.0000   0.0000   0.0000   0.0000   0.0000   0.0000
     0.0000   0.0000

          k = 0.0625 0.0625 0.1450 ( 17045 PWs)   bands (ev):

  -101.7053-101.7053-101.2887 -59.2323 -59.2322 -59.2281 -59.2280 -58.8351
   -58.8344 -58.8237 -58.6236 -58.6234 -30.6180 -15.9286 -15.9143 -11.0698
   -10.6199 -10.6140  -7.6033  -6.7974  -6.6001  -6.4647  -6.3670  -6.2479
    -1.3521  -1.1564  -0.8696  -0.8541  -0.7991  -0.7794   5.5352   5.7571
     5.7854   5.8561   6.0670   6.0857   6.9339   6.9897   7.3394   7.4038
     7.5540   7.8459   7.8925   8.0302   8.1962   8.2795   8.3093   8.3650
     8.3846   8.4127   8.5221   8.5848   8.6742   8.8770   8.9189   8.9694
     9.0604   9.1832   9.4256   9.5617   9.7702  10.0733  10.1616  13.0589
    13.4102  13.6694  13.7361  14.8282  15.0468  15.3863  15.6810  15.7865
    16.0495  17.0647

     occupation numbers 
     1.0000   1.0000   1.0000   1.0000   1.0000   1.0000   1.0000   1.0000
     1.0000   1.0000   1.0000   1.0000   1.0000   1.0000   1.0000   1.0000
     1.0000   1.0000   1.0000   1.0000   1.0000   1.0000   1.0000   1.0000
     1.0000   1.0000   1.0000   1.0000   1.0000   1.0000   1.0000   1.0000
     1.0000   1.0000   1.0000   1.0000   1.0000   1.0000   1.0000   1.0000
     1.0000   1.0000   1.0000   1.0000   1.0000   1.0000   1.0000   1.0000
     1.0000   1.0000   1.0000   1.0000   1.0000   1.0000   1.0000   1.0000
     1.0000   1.0000   1.0000   1.0000   1.0000   1.0000   1.0000   0.0000
     0.0000   0.0000   0.0000   0.0000   0.0000   0.0000   0.0000   0.0000
     0.0000   0.0000

          k = 0.0625 0.1875 0.0207 ( 17062 PWs)   bands (ev):

  -101.7053-101.7053-101.2887 -59.2323 -59.2322 -59.2281 -59.2280 -58.8351
   -58.8344 -58.8237 -58.6236 -58.6234 -30.6147 -15.8983 -15.8864 -11.0142
   -10.7712 -10.6131  -7.4150  -6.8101  -6.6935  -6.4394  -6.4238  -6.3096
    -1.3614  -1.1354  -0.9187  -0.8916  -0.7358  -0.7101   5.3489   5.5444
     5.7382   5.8632   6.0579   6.1037   6.8072   6.9414   7.1342   7.2888
     7.3951   7.4330   7.7385   7.8823   8.1113   8.1128   8.1694   8.1884
     8.4281   8.4980   8.6413   8.6468   8.6628   8.7011   8.9876   9.0231
     9.0408   9.3277   9.6364   9.9094   9.9760  10.0428  10.2730  12.9149
    13.7880  14.0400  14.4318  14.7839  15.4080  15.5964  15.9142  16.0838
    16.5776  16.7120

     occupation numbers 
     1.0000   1.0000   1.0000   1.0000   1.0000   1.0000   1.0000   1.0000
     1.0000   1.0000   1.0000   1.0000   1.0000   1.0000   1.0000   1.0000
     1.0000   1.0000   1.0000   1.0000   1.0000   1.0000   1.0000   1.0000
     1.0000   1.0000   1.0000   1.0000   1.0000   1.0000   1.0000   1.0000
     1.0000   1.0000   1.0000   1.0000   1.0000   1.0000   1.0000   1.0000
     1.0000   1.0000   1.0000   1.0000   1.0000   1.0000   1.0000   1.0000
     1.0000   1.0000   1.0000   1.0000   1.0000   1.0000   1.0000   1.0000
     1.0000   1.0000   1.0000   1.0000   1.0000   1.0189   1.0212   0.0000
     0.0000   0.0000   0.0000   0.0000   0.0000   0.0000   0.0000   0.0000
     0.0000   0.0000

          k = 0.0625 0.1875 0.0621 ( 17047 PWs)   bands (ev):

  -101.7053-101.7053-101.2887 -59.2323 -59.2322 -59.2281 -59.2280 -58.8351
   -58.8344 -58.8237 -58.6236 -58.6234 -30.6147 -15.8986 -15.8862 -11.0142
   -10.7712 -10.6131  -7.4145  -6.8182  -6.6808  -6.4531  -6.4146  -6.3101
    -1.3568  -1.1404  -0.9180  -0.8923  -0.7356  -0.7102   5.3628   5.5379
     5.7264   5.8634   6.0554   6.1075   6.8285   6.9434   7.1406   7.2840
     7.3789   7.4421   7.6405   7.9365   8.0767   8.1177   8.2049   8.2323
     8.4259   8.4870   8.6367   8.6458   8.6580   8.7015   8.9897   9.0429
     9.0692   9.3204   9.5975   9.9029   9.9575  10.0694  10.2605  12.9346
    13.8105  14.0436  14.3999  14.7840  15.3933  15.5939  15.7716  16.1286
    16.5088  16.7416

     occupation numbers 
     1.0000   1.0000   1.0000   1.0000   1.0000   1.0000   1.0000   1.0000
     1.0000   1.0000   1.0000   1.0000   1.0000   1.0000   1.0000   1.0000
     1.0000   1.0000   1.0000   1.0000   1.0000   1.0000   1.0000   1.0000
     1.0000   1.0000   1.0000   1.0000   1.0000   1.0000   1.0000   1.0000
     1.0000   1.0000   1.0000   1.0000   1.0000   1.0000   1.0000   1.0000
     1.0000   1.0000   1.0000   1.0000   1.0000   1.0000   1.0000   1.0000
     1.0000   1.0000   1.0000   1.0000   1.0000   1.0000   1.0000   1.0000
     1.0000   1.0000   1.0000   1.0000   1.0000   1.0190   1.0219   0.0000
     0.0000   0.0000   0.0000   0.0000   0.0000   0.0000   0.0000   0.0000
     0.0000   0.0000

          k = 0.0625 0.1875 0.1036 ( 17055 PWs)   bands (ev):

  -101.7053-101.7053-101.2887 -59.2323 -59.2322 -59.2281 -59.2280 -58.8351
   -58.8344 -58.8237 -58.6236 -58.6234 -30.6147 -15.8990 -15.8858 -11.0142
   -10.7712 -10.6131  -7.4139  -6.8280  -6.6641  -6.4669  -6.4079  -6.3107
    -1.3499  -1.1478  -0.9170  -0.8933  -0.7353  -0.7104   5.3861   5.5256
     5.7091   5.8636   6.0522   6.1127   6.8620   6.9486   7.1539   7.2696
     7.3553   7.4515   7.5516   7.9585   8.0525   8.1385   8.2324   8.2908
     8.4196   8.4711   8.6262   8.6429   8.6536   8.7025   9.0009   9.0478
     9.1394   9.3068   9.5319   9.8914   9.9408  10.1022  10.2399  12.9629
    13.8450  14.0482  14.3559  14.7828  15.3506  15.5918  15.6543  16.1747
    16.4309  16.7791

     occupation numbers 
     1.0000   1.0000   1.0000   1.0000   1.0000   1.0000   1.0000   1.0000
     1.0000   1.0000   1.0000   1.0000   1.0000   1.0000   1.0000   1.0000
     1.0000   1.0000   1.0000   1.0000   1.0000   1.0000   1.0000   1.0000
     1.0000   1.0000   1.0000   1.0000   1.0000   1.0000   1.0000   1.0000
     1.0000   1.0000   1.0000   1.0000   1.0000   1.0000   1.0000   1.0000
     1.0000   1.0000   1.0000   1.0000   1.0000   1.0000   1.0000   1.0000
     1.0000   1.0000   1.0000   1.0000   1.0000   1.0000   1.0000   1.0000
     1.0000   1.0000   1.0000   1.0000   1.0000   1.0191   1.0230   0.0000
     0.0000   0.0000   0.0000   0.0000   0.0000   0.0000   0.0000   0.0000
     0.0000   0.0000

          k = 0.0625 0.1875 0.1450 ( 17058 PWs)   bands (ev):

  -101.7053-101.7053-101.2887 -59.2323 -59.2322 -59.2281 -59.2280 -58.8351
   -58.8344 -58.8237 -58.6236 -58.6234 -30.6147 -15.8992 -15.8855 -11.0142
   -10.7712 -10.6131  -7.4134  -6.8340  -6.6524  -6.4760  -6.4045  -6.3112
    -1.3447  -1.1534  -0.9162  -0.8941  -0.7352  -0.7106   5.4074   5.5125
     5.6966   5.8636   6.0500   6.1162   6.8868   6.9569   7.1747   7.2399
     7.3377   7.4576   7.5040   7.9615   8.0401   8.1578   8.2512   8.3319
     8.4102   8.4592   8.6184   8.6373   8.6525   8.7034   9.0099   9.0527
     9.2139   9.2863   9.4696   9.8817   9.9324  10.1280  10.2207  12.9833
    13.8720  14.0510  14.3244  14.7836  15.2952  15.5950  15.6100  16.2333
    16.3378  16.8260

     occupation numbers 
     1.0000   1.0000   1.0000   1.0000   1.0000   1.0000   1.0000   1.0000
     1.0000   1.0000   1.0000   1.0000   1.0000   1.0000   1.0000   1.0000
     1.0000   1.0000   1.0000   1.0000   1.0000   1.0000   1.0000   1.0000
     1.0000   1.0000   1.0000   1.0000   1.0000   1.0000   1.0000   1.0000
     1.0000   1.0000   1.0000   1.0000   1.0000   1.0000   1.0000   1.0000
     1.0000   1.0000   1.0000   1.0000   1.0000   1.0000   1.0000   1.0000
     1.0000   1.0000   1.0000   1.0000   1.0000   1.0000   1.0000   1.0000
     1.0000   1.0000   1.0000   1.0000   1.0000   1.0191   1.0241   0.0000
     0.0000   0.0000   0.0000   0.0000   0.0000   0.0000   0.0000   0.0000
     0.0000   0.0000

          k = 0.0625 0.3125 0.0207 ( 17037 PWs)   bands (ev):

  -101.7053-101.7053-101.2887 -59.2323 -59.2323 -59.2281 -59.2280 -58.8351
   -58.8344 -58.8237 -58.6237 -58.6234 -30.6100 -15.8562 -15.8450 -10.9677
   -10.9312 -10.6060  -7.1500  -6.9061  -6.8093  -6.5278  -6.3899  -6.3500
    -1.3391  -1.1323  -0.9339  -0.8863  -0.6946  -0.6692   4.9851   5.2002
     5.6156   6.0158   6.1196   6.1303   6.6546   6.8954   6.9119   7.0257
     7.0499   7.1516   7.5730   7.6867   7.8371   7.9089   8.0041   8.1672
     8.3121   8.5180   8.6183   8.6660   8.7275   8.9016   9.1820   9.1903
     9.5069   9.5555   9.6568   9.7802   9.9261  10.1444  10.5379  12.5573
    14.1557  14.5307  15.2298  15.3563  15.4936  15.9149  16.1952  16.3405
    16.8325  16.9151

     occupation numbers 
     1.0000   1.0000   1.0000   1.0000   1.0000   1.0000   1.0000   1.0000
     1.0000   1.0000   1.0000   1.0000   1.0000   1.0000   1.0000   1.0000
     1.0000   1.0000   1.0000   1.0000   1.0000   1.0000   1.0000   1.0000
     1.0000   1.0000   1.0000   1.0000   1.0000   1.0000   1.0000   1.0000
     1.0000   1.0000   1.0000   1.0000   1.0000   1.0000   1.0000   1.0000
     1.0000   1.0000   1.0000   1.0000   1.0000   1.0000   1.0000   1.0000
     1.0000   1.0000   1.0000   1.0000   1.0000   1.0000   1.0000   1.0000
     1.0000   1.0000   1.0000   1.0000   1.0000   1.0398   0.9228   0.0000
     0.0000   0.0000   0.0000   0.0000   0.0000   0.0000   0.0000   0.0000
     0.0000   0.0000

          k = 0.0625 0.3125 0.0621 ( 17036 PWs)   bands (ev):

  -101.7053-101.7053-101.2887 -59.2323 -59.2323 -59.2281 -59.2280 -58.8351
   -58.8344 -58.8237 -58.6237 -58.6234 -30.6100 -15.8564 -15.8448 -10.9677
   -10.9312 -10.6060  -7.1482  -6.9254  -6.7800  -6.5472  -6.3820  -6.3503
    -1.3358  -1.1358  -0.9328  -0.8876  -0.6945  -0.6694   4.9985   5.1863
     5.6154   6.0157   6.1125   6.1274   6.6952   6.8873   6.9285   7.0207
     7.0519   7.1488   7.4359   7.7393   7.8664   7.9090   8.0424   8.1282
     8.3396   8.5096   8.6195   8.6790   8.7313   8.9055   9.1843   9.2146
     9.5004   9.5546   9.6358   9.7734   9.9148  10.1557  10.5192  12.5648
    14.1694  14.5295  15.2247  15.3400  15.4883  15.9111  16.1207  16.2951
    16.8129  17.0418

     occupation numbers 
     1.0000   1.0000   1.0000   1.0000   1.0000   1.0000   1.0000   1.0000
     1.0000   1.0000   1.0000   1.0000   1.0000   1.0000   1.0000   1.0000
     1.0000   1.0000   1.0000   1.0000   1.0000   1.0000   1.0000   1.0000
     1.0000   1.0000   1.0000   1.0000   1.0000   1.0000   1.0000   1.0000
     1.0000   1.0000   1.0000   1.0000   1.0000   1.0000   1.0000   1.0000
     1.0000   1.0000   1.0000   1.0000   1.0000   1.0000   1.0000   1.0000
     1.0000   1.0000   1.0000   1.0000   1.0000   1.0000   1.0000   1.0000
     1.0000   1.0000   1.0000   1.0000   1.0000   1.0392   0.9331   0.0000
     0.0000   0.0000   0.0000   0.0000   0.0000   0.0000   0.0000   0.0000
     0.0000   0.0000

          k = 0.0625 0.3125 0.1036 ( 17052 PWs)   bands (ev):

  -101.7053-101.7053-101.2887 -59.2323 -59.2323 -59.2281 -59.2280 -58.8351
   -58.8344 -58.8237 -58.6237 -58.6234 -30.6100 -15.8568 -15.8444 -10.9677
   -10.9313 -10.6060  -7.1456  -6.9449  -6.7417  -6.5776  -6.3725  -6.3508
    -1.3308  -1.1409  -0.9310  -0.8895  -0.6942  -0.6698   5.0219   5.1621
     5.6152   6.0156   6.1007   6.1257   6.7626   6.8899   6.9449   7.0091
     7.0551   7.1378   7.3054   7.7515   7.8974   7.9166   8.0795   8.0968
     8.3683   8.4979   8.6205   8.6955   8.7377   8.9096   9.1900   9.2619
     9.4763   9.5562   9.6046   9.7630   9.8994  10.1723  10.4923  12.5753
    14.1890  14.5272  15.2190  15.3151  15.4801  15.8947  16.0731  16.2202
    16.7930  17.1853

     occupation numbers 
     1.0000   1.0000   1.0000   1.0000   1.0000   1.0000   1.0000   1.0000
     1.0000   1.0000   1.0000   1.0000   1.0000   1.0000   1.0000   1.0000
     1.0000   1.0000   1.0000   1.0000   1.0000   1.0000   1.0000   1.0000
     1.0000   1.0000   1.0000   1.0000   1.0000   1.0000   1.0000   1.0000
     1.0000   1.0000   1.0000   1.0000   1.0000   1.0000   1.0000   1.0000
     1.0000   1.0000   1.0000   1.0000   1.0000   1.0000   1.0000   1.0000
     1.0000   1.0000   1.0000   1.0000   1.0000   1.0000   1.0000   1.0000
     1.0000   1.0000   1.0000   1.0000   1.0000   1.0382   0.9464   0.0000
     0.0000   0.0000   0.0000   0.0000   0.0000   0.0000   0.0000   0.0000
     0.0000   0.0000

          k = 0.0625 0.3125 0.1450 ( 17061 PWs)   bands (ev):

  -101.7053-101.7053-101.2887 -59.2323 -59.2323 -59.2281 -59.2280 -58.8351
   -58.8344 -58.8237 -58.6237 -58.6234 -30.6100 -15.8570 -15.8442 -10.9677
   -10.9313 -10.6060  -7.1436  -6.9562  -6.7094  -6.6061  -6.3665  -6.3514
    -1.3272  -1.1447  -0.9296  -0.8910  -0.6940  -0.6700   5.0454   5.1380
     5.6150   6.0157   6.0924   6.1250   6.8163   6.9233   6.9561   6.9843
     7.0627   7.0989   7.2325   7.7518   7.9097   7.9347   8.0415   8.1336
     8.3857   8.4891   8.6210   8.7052   8.7435   8.9113   9.1943   9.3254
     9.4267   9.5619   9.5817   9.7550   9.8891  10.1848  10.4726  12.5827
    14.2030  14.5251  15.2171  15.2953  15.4738  15.8735  16.0880  16.1438
    16.7836  17.2372

     occupation numbers 
     1.0000   1.0000   1.0000   1.0000   1.0000   1.0000   1.0000   1.0000
     1.0000   1.0000   1.0000   1.0000   1.0000   1.0000   1.0000   1.0000
     1.0000   1.0000   1.0000   1.0000   1.0000   1.0000   1.0000   1.0000
     1.0000   1.0000   1.0000   1.0000   1.0000   1.0000   1.0000   1.0000
     1.0000   1.0000   1.0000   1.0000   1.0000   1.0000   1.0000   1.0000
     1.0000   1.0000   1.0000   1.0000   1.0000   1.0000   1.0000   1.0000
     1.0000   1.0000   1.0000   1.0000   1.0000   1.0000   1.0000   1.0000
     1.0000   1.0000   1.0000   1.0000   1.0000   1.0373   0.9552   0.0000
     0.0000   0.0000   0.0000   0.0000   0.0000   0.0000   0.0000   0.0000
     0.0000   0.0000

          k = 0.0625 0.4375 0.0207 ( 17054 PWs)   bands (ev):

  -101.7053-101.7053-101.2887 -59.2323 -59.2323 -59.2281 -59.2280 -58.8351
   -58.8344 -58.8237 -58.6237 -58.6234 -30.6067 -15.8258 -15.8152 -11.0941
   -10.8691 -10.6009  -7.0137  -6.9631  -6.8737  -6.5874  -6.3927  -6.3463
    -1.3207  -1.1172  -0.9317  -0.8742  -0.6755  -0.6559   4.7184   4.9365
     5.5762   6.0872   6.1958   6.1991   6.5735   6.6618   6.6871   6.8970
     6.9565   7.0811   7.4727   7.5481   7.5826   7.7244   7.9127   8.2215
     8.2780   8.5237   8.5976   8.6722   8.8036   9.2203   9.3069   9.3283
     9.5974   9.6784   9.7080   9.8243   9.9265  10.1387  10.6038  12.1350
    14.1666  15.0423  15.3615  15.9520  16.1016  16.1751  16.2734  16.5340
    16.7520  17.1293

     occupation numbers 
     1.0000   1.0000   1.0000   1.0000   1.0000   1.0000   1.0000   1.0000
     1.0000   1.0000   1.0000   1.0000   1.0000   1.0000   1.0000   1.0000
     1.0000   1.0000   1.0000   1.0000   1.0000   1.0000   1.0000   1.0000
     1.0000   1.0000   1.0000   1.0000   1.0000   1.0000   1.0000   1.0000
     1.0000   1.0000   1.0000   1.0000   1.0000   1.0000   1.0000   1.0000
     1.0000   1.0000   1.0000   1.0000   1.0000   1.0000   1.0000   1.0000
     1.0000   1.0000   1.0000   1.0000   1.0000   1.0000   1.0000   1.0000
     1.0000   1.0000   1.0000   1.0000   1.0000   1.0409   0.8111   0.0000
     0.0000   0.0000   0.0000   0.0000   0.0000   0.0000   0.0000   0.0000
     0.0000   0.0000

          k = 0.0625 0.4375 0.0621 ( 17057 PWs)   bands (ev):

  -101.7053-101.7053-101.2887 -59.2323 -59.2323 -59.2281 -59.2280 -58.8351
   -58.8344 -58.8237 -58.6237 -58.6234 -30.6067 -15.8261 -15.8150 -11.0941
   -10.8691 -10.6009  -7.0389  -6.9372  -6.8579  -6.6155  -6.3810  -6.3465
    -1.3167  -1.1215  -0.9314  -0.8746  -0.6754  -0.6559   4.7281   4.9259
     5.5764   6.0787   6.1932   6.1972   6.6135   6.6814   6.6901   6.8763
     6.9471   7.1013   7.3362   7.5557   7.5970   7.8145   7.8927   8.1937
     8.3145   8.5164   8.5982   8.6834   8.8190   9.2255   9.3072   9.3371
     9.5763   9.6778   9.7081   9.8163   9.9186  10.1450  10.5865  12.1427
    14.1810  15.0206  15.3609  15.9470  16.0308  16.1739  16.2970  16.5359
    16.7319  17.1823

     occupation numbers 
     1.0000   1.0000   1.0000   1.0000   1.0000   1.0000   1.0000   1.0000
     1.0000   1.0000   1.0000   1.0000   1.0000   1.0000   1.0000   1.0000
     1.0000   1.0000   1.0000   1.0000   1.0000   1.0000   1.0000   1.0000
     1.0000   1.0000   1.0000   1.0000   1.0000   1.0000   1.0000   1.0000
     1.0000   1.0000   1.0000   1.0000   1.0000   1.0000   1.0000   1.0000
     1.0000   1.0000   1.0000   1.0000   1.0000   1.0000   1.0000   1.0000
     1.0000   1.0000   1.0000   1.0000   1.0000   1.0000   1.0000   1.0000
     1.0000   1.0000   1.0000   1.0000   1.0000   1.0398   0.8257   0.0000
     0.0000   0.0000   0.0000   0.0000   0.0000   0.0000   0.0000   0.0000
     0.0000   0.0000

          k = 0.0625 0.4375 0.1036 ( 17055 PWs)   bands (ev):

  -101.7053-101.7053-101.2887 -59.2323 -59.2323 -59.2281 -59.2280 -58.8351
   -58.8344 -58.8237 -58.6237 -58.6234 -30.6067 -15.8264 -15.8146 -11.0941
   -10.8691 -10.6009  -7.0591  -6.9217  -6.8212  -6.6609  -6.3672  -6.3468
    -1.3106  -1.1279  -0.9309  -0.8752  -0.6754  -0.6560   4.7440   4.9088
     5.5767   6.0677   6.1871   6.1969   6.6688   6.6927   6.7337   6.8434
     6.9344   7.1235   7.1944   7.5597   7.6030   7.8654   7.8998   8.1705
     8.3478   8.5063   8.5990   8.6973   8.8436   9.2317   9.3077   9.3607
     9.5344   9.6771   9.7081   9.8058   9.9075  10.1541  10.5621  12.1536
    14.2012  14.9885  15.3602  15.9381  15.9715  16.1508  16.3340  16.5299
    16.7050  17.1687

     occupation numbers 
     1.0000   1.0000   1.0000   1.0000   1.0000   1.0000   1.0000   1.0000
     1.0000   1.0000   1.0000   1.0000   1.0000   1.0000   1.0000   1.0000
     1.0000   1.0000   1.0000   1.0000   1.0000   1.0000   1.0000   1.0000
     1.0000   1.0000   1.0000   1.0000   1.0000   1.0000   1.0000   1.0000
     1.0000   1.0000   1.0000   1.0000   1.0000   1.0000   1.0000   1.0000
     1.0000   1.0000   1.0000   1.0000   1.0000   1.0000   1.0000   1.0000
     1.0000   1.0000   1.0000   1.0000   1.0000   1.0000   1.0000   1.0000
     1.0000   1.0000   1.0000   1.0000   1.0000   1.0383   0.8448   0.0000
     0.0000   0.0000   0.0000   0.0000   0.0000   0.0000   0.0000   0.0000
     0.0000   0.0000

          k = 0.0625 0.4375 0.1450 ( 17056 PWs)   bands (ev):

  -101.7053-101.7053-101.2887 -59.2323 -59.2323 -59.2281 -59.2280 -58.8351
   -58.8344 -58.8237 -58.6237 -58.6234 -30.6067 -15.8266 -15.8144 -11.0941
   -10.8691 -10.6009  -7.0698  -6.9164  -6.7709  -6.7141  -6.3588  -6.3470
    -1.3061  -1.1327  -0.9306  -0.8756  -0.6754  -0.6560   4.7576   4.8943
     5.5770   6.0606   6.1829   6.1968   6.6885   6.7136   6.8111   6.8173
     6.9143   7.0705   7.1510   7.5605   7.6071   7.8488   7.9461   8.1575
     8.3668   8.4992   8.5996   8.7058   8.8629   9.2349   9.3081   9.4004
     9.4815   9.6767   9.7082   9.7988   9.8997  10.1608  10.5448  12.1613
    14.2156  14.9648  15.3598  15.9263  15.9462  16.1354  16.3627  16.5146
    16.6872  17.1635

     occupation numbers 
     1.0000   1.0000   1.0000   1.0000   1.0000   1.0000   1.0000   1.0000
     1.0000   1.0000   1.0000   1.0000   1.0000   1.0000   1.0000   1.0000
     1.0000   1.0000   1.0000   1.0000   1.0000   1.0000   1.0000   1.0000
     1.0000   1.0000   1.0000   1.0000   1.0000   1.0000   1.0000   1.0000
     1.0000   1.0000   1.0000   1.0000   1.0000   1.0000   1.0000   1.0000
     1.0000   1.0000   1.0000   1.0000   1.0000   1.0000   1.0000   1.0000
     1.0000   1.0000   1.0000   1.0000   1.0000   1.0000   1.0000   1.0000
     1.0000   1.0000   1.0000   1.0000   1.0000   1.0372   0.8574   0.0000
     0.0000   0.0000   0.0000   0.0000   0.0000   0.0000   0.0000   0.0000
     0.0000   0.0000

          k = 0.1875 0.1875 0.0207 ( 17054 PWs)   bands (ev):

  -101.7053-101.7053-101.2887 -59.2323 -59.2322 -59.2281 -59.2281 -58.8351
   -58.8344 -58.8237 -58.6236 -58.6235 -30.6115 -15.8708 -15.8593 -10.9610
   -10.7749 -10.7502  -7.2356  -6.8056  -6.7186  -6.4652  -6.3961  -6.3893
    -1.3410  -1.1284  -1.0919  -1.0688  -0.6959  -0.6548   5.1331   5.4373
     5.7072   5.8058   5.8630   6.1961   6.7017   6.8898   6.9003   6.9724
     7.0180   7.3828   7.6090   7.8643   7.8848   8.1660   8.2200   8.3081
     8.4780   8.5558   8.6269   8.6441   8.7628   9.0142   9.0483   9.1096
     9.1361   9.1699   9.7308   9.8432  10.1037  10.5807  10.7608  12.9329
    14.0258  14.1448  14.9535  15.0392  15.0495  15.4366  16.1970  16.4004
    16.6317  16.7535

     occupation numbers 
     1.0000   1.0000   1.0000   1.0000   1.0000   1.0000   1.0000   1.0000
     1.0000   1.0000   1.0000   1.0000   1.0000   1.0000   1.0000   1.0000
     1.0000   1.0000   1.0000   1.0000   1.0000   1.0000   1.0000   1.0000
     1.0000   1.0000   1.0000   1.0000   1.0000   1.0000   1.0000   1.0000
     1.0000   1.0000   1.0000   1.0000   1.0000   1.0000   1.0000   1.0000
     1.0000   1.0000   1.0000   1.0000   1.0000   1.0000   1.0000   1.0000
     1.0000   1.0000   1.0000   1.0000   1.0000   1.0000   1.0000   1.0000
     1.0000   1.0000   1.0000   1.0000   1.0000   0.8701   0.6004   0.0000
     0.0000   0.0000   0.0000   0.0000   0.0000   0.0000   0.0000   0.0000
     0.0000   0.0000

          k = 0.1875 0.1875 0.0621 ( 17063 PWs)   bands (ev):

  -101.7053-101.7053-101.2887 -59.2323 -59.2322 -59.2281 -59.2281 -58.8351
   -58.8344 -58.8237 -58.6236 -58.6235 -30.6115 -15.8710 -15.8590 -10.9610
   -10.7749 -10.7502  -7.2346  -6.8202  -6.6998  -6.4704  -6.3961  -6.3893
    -1.3384  -1.1313  -1.0909  -1.0698  -0.6946  -0.6561   5.1520   5.4110
     5.7082   5.8058   5.8630   6.1917   6.7262   6.8937   6.9159   6.9733
     7.0111   7.3840   7.5049   7.8640   7.9682   8.1313   8.2764   8.3168
     8.4735   8.5206   8.6272   8.6665   8.7517   9.0130   9.0426   9.1112
     9.1380   9.2072   9.6974   9.8230  10.0991  10.5871  10.7582  12.9426
    14.0231  14.1617  14.9232  15.0671  15.1090  15.4142  15.9693  16.4639
    16.6451  16.6946

     occupation numbers 
     1.0000   1.0000   1.0000   1.0000   1.0000   1.0000   1.0000   1.0000
     1.0000   1.0000   1.0000   1.0000   1.0000   1.0000   1.0000   1.0000
     1.0000   1.0000   1.0000   1.0000   1.0000   1.0000   1.0000   1.0000
     1.0000   1.0000   1.0000   1.0000   1.0000   1.0000   1.0000   1.0000
     1.0000   1.0000   1.0000   1.0000   1.0000   1.0000   1.0000   1.0000
     1.0000   1.0000   1.0000   1.0000   1.0000   1.0000   1.0000   1.0000
     1.0000   1.0000   1.0000   1.0000   1.0000   1.0000   1.0000   1.0000
     1.0000   1.0000   1.0000   1.0000   1.0000   0.8646   0.6061   0.0000
     0.0000   0.0000   0.0000   0.0000   0.0000   0.0000   0.0000   0.0000
     0.0000   0.0000

          k = 0.1875 0.1875 0.1036 ( 17069 PWs)   bands (ev):

  -101.7053-101.7053-101.2887 -59.2323 -59.2322 -59.2281 -59.2281 -58.8351
   -58.8344 -58.8237 -58.6236 -58.6235 -30.6115 -15.8714 -15.8587 -10.9611
   -10.7749 -10.7502  -7.2332  -6.8357  -6.6778  -6.4783  -6.3961  -6.3893
    -1.3347  -1.1355  -1.0894  -1.0713  -0.6925  -0.6580   5.1870   5.3661
     5.7091   5.8057   5.8630   6.1858   6.7620   6.9044   6.9337   6.9752
     7.0081   7.3854   7.3886   7.8527   8.0603   8.1090   8.3332   8.3370
     8.4619   8.4704   8.6279   8.6887   8.7349   9.0114   9.0345   9.1133
     9.1410   9.2782   9.6222   9.8045  10.0927  10.5963  10.7542  12.9562
    14.0194  14.1864  14.9035  15.1070  15.1873  15.3687  15.7867  16.4827
    16.5334  16.6167

     occupation numbers 
     1.0000   1.0000   1.0000   1.0000   1.0000   1.0000   1.0000   1.0000
     1.0000   1.0000   1.0000   1.0000   1.0000   1.0000   1.0000   1.0000
     1.0000   1.0000   1.0000   1.0000   1.0000   1.0000   1.0000   1.0000
     1.0000   1.0000   1.0000   1.0000   1.0000   1.0000   1.0000   1.0000
     1.0000   1.0000   1.0000   1.0000   1.0000   1.0000   1.0000   1.0000
     1.0000   1.0000   1.0000   1.0000   1.0000   1.0000   1.0000   1.0000
     1.0000   1.0000   1.0000   1.0000   1.0000   1.0000   1.0000   1.0000
     1.0000   1.0000   1.0000   1.0000   1.0000   0.8563   0.6143   0.0000
     0.0000   0.0000   0.0000   0.0000   0.0000   0.0000   0.0000   0.0000
     0.0000   0.0000

          k = 0.1875 0.1875 0.1450 ( 17074 PWs)   bands (ev):

  -101.7053-101.7053-101.2887 -59.2323 -59.2322 -59.2281 -59.2281 -58.8351
   -58.8344 -58.8237 -58.6236 -58.6235 -30.6115 -15.8716 -15.8584 -10.9611
   -10.7749 -10.7502  -7.2322  -6.8447  -6.6634  -6.4846  -6.3961  -6.3893
    -1.3319  -1.1385  -1.0881  -1.0726  -0.6909  -0.6595   5.2287   5.3176
     5.7094   5.8057   5.8631   6.1819   6.7883   6.9131   6.9392   6.9767
     7.0246   7.3029   7.3871   7.8447   8.0973   8.1190   8.3657   8.3851
     8.4152   8.4419   8.6283   8.7015   8.7223   9.0102   9.0288   9.1148
     9.1429   9.3676   9.5259   9.7958  10.0883  10.6030  10.7512  12.9658
    14.0168  14.2045  14.8948  15.1590  15.2427  15.3088  15.6902  16.4284
    16.4832  16.6110

     occupation numbers 
     1.0000   1.0000   1.0000   1.0000   1.0000   1.0000   1.0000   1.0000
     1.0000   1.0000   1.0000   1.0000   1.0000   1.0000   1.0000   1.0000
     1.0000   1.0000   1.0000   1.0000   1.0000   1.0000   1.0000   1.0000
     1.0000   1.0000   1.0000   1.0000   1.0000   1.0000   1.0000   1.0000
     1.0000   1.0000   1.0000   1.0000   1.0000   1.0000   1.0000   1.0000
     1.0000   1.0000   1.0000   1.0000   1.0000   1.0000   1.0000   1.0000
     1.0000   1.0000   1.0000   1.0000   1.0000   1.0000   1.0000   1.0000
     1.0000   1.0000   1.0000   1.0000   1.0000   0.8501   0.6204   0.0000
     0.0000   0.0000   0.0000   0.0000   0.0000   0.0000   0.0000   0.0000
     0.0000   0.0000

          k = 0.1875 0.3125 0.0207 ( 17064 PWs)   bands (ev):

  -101.7053-101.7053-101.2887 -59.2323 -59.2323 -59.2281 -59.2280 -58.8351
   -58.8344 -58.8237 -58.6237 -58.6235 -30.6068 -15.8313 -15.8203 -10.9578
   -10.8807 -10.7504  -6.9923  -6.8518  -6.7554  -6.5082  -6.4545  -6.3556
    -1.3256  -1.1731  -1.1694  -1.1009  -0.7818  -0.7376   4.7250   5.1063
     5.6298   5.8118   5.8379   6.2481   6.4179   6.4351   6.7831   6.9289
     6.9641   7.3223   7.5198   7.6187   7.8134   8.1441   8.2974   8.3781
     8.4661   8.5825   8.6410   8.7310   8.7877   9.0418   9.2658   9.2926
     9.4213   9.5185   9.7257   9.8556  10.0558  10.9563  11.1595  12.6844
    13.7631  14.7238  14.8996  15.4799  15.8244  15.8486  16.2124  16.5255
    16.6920  16.8613

     occupation numbers 
     1.0000   1.0000   1.0000   1.0000   1.0000   1.0000   1.0000   1.0000
     1.0000   1.0000   1.0000   1.0000   1.0000   1.0000   1.0000   1.0000
     1.0000   1.0000   1.0000   1.0000   1.0000   1.0000   1.0000   1.0000
     1.0000   1.0000   1.0000   1.0000   1.0000   1.0000   1.0000   1.0000
     1.0000   1.0000   1.0000   1.0000   1.0000   1.0000   1.0000   1.0000
     1.0000   1.0000   1.0000   1.0000   1.0000   1.0000   1.0000   1.0000
     1.0000   1.0000   1.0000   1.0000   1.0000   1.0000   1.0000   1.0000
     1.0000   1.0000   1.0000   1.0000   1.0000   0.2709  -0.0108   0.0000
     0.0000   0.0000   0.0000   0.0000   0.0000   0.0000   0.0000   0.0000
     0.0000   0.0000

          k = 0.1875 0.3125 0.0621 ( 17079 PWs)   bands (ev):

  -101.7053-101.7053-101.2887 -59.2323 -59.2323 -59.2281 -59.2281 -58.8351
   -58.8344 -58.8237 -58.6237 -58.6235 -30.6068 -15.8315 -15.8200 -10.9578
   -10.8807 -10.7504  -6.9882  -6.8710  -6.7323  -6.5196  -6.4547  -6.3521
    -1.3242  -1.1720  -1.1698  -1.1033  -0.7802  -0.7392   4.7385   5.0863
     5.6320   5.8037   5.8457   6.2423   6.4198   6.4386   6.8205   6.9176
     6.9741   7.3149   7.4117   7.6518   7.8613   8.1658   8.3127   8.3744
     8.4586   8.5804   8.6179   8.7443   8.7872   9.0463   9.2653   9.3149
     9.4208   9.5187   9.7166   9.8221  10.0511  10.9595  11.1556  12.6898
    13.7795  14.7100  14.9303  15.4581  15.8380  15.8656  16.1425  16.4426
    16.6736  16.8488

     occupation numbers 
     1.0000   1.0000   1.0000   1.0000   1.0000   1.0000   1.0000   1.0000
     1.0000   1.0000   1.0000   1.0000   1.0000   1.0000   1.0000   1.0000
     1.0000   1.0000   1.0000   1.0000   1.0000   1.0000   1.0000   1.0000
     1.0000   1.0000   1.0000   1.0000   1.0000   1.0000   1.0000   1.0000
     1.0000   1.0000   1.0000   1.0000   1.0000   1.0000   1.0000   1.0000
     1.0000   1.0000   1.0000   1.0000   1.0000   1.0000   1.0000   1.0000
     1.0000   1.0000   1.0000   1.0000   1.0000   1.0000   1.0000   1.0000
     1.0000   1.0000   1.0000   1.0000   1.0000   0.2646  -0.0028   0.0000
     0.0000   0.0000   0.0000   0.0000   0.0000   0.0000   0.0000   0.0000
     0.0000   0.0000

          k = 0.1875 0.3125 0.1036 ( 17074 PWs)   bands (ev):

  -101.7053-101.7053-101.2887 -59.2323 -59.2323 -59.2281 -59.2281 -58.8351
   -58.8344 -58.8237 -58.6237 -58.6235 -30.6068 -15.8318 -15.8197 -10.9578
   -10.8807 -10.7504  -6.9809  -6.8931  -6.7037  -6.5376  -6.4548  -6.3477
    -1.3222  -1.1711  -1.1695  -1.1068  -0.7776  -0.7418   4.7604   5.0556
     5.6350   5.7961   5.8529   6.2346   6.4245   6.4420   6.8820   6.9088
     6.9869   7.2541   7.3498   7.6506   7.9221   8.1976   8.3376   8.3733
     8.4411   8.5628   8.6040   8.7510   8.7925   9.0513   9.2693   9.3519
     9.4215   9.5189   9.6876   9.7796  10.0455  10.9642  11.1500  12.6970
    13.8032  14.6885  14.9855  15.4125  15.8551  15.9126  16.0634  16.3602
    16.5345  16.8894

     occupation numbers 
     1.0000   1.0000   1.0000   1.0000   1.0000   1.0000   1.0000   1.0000
     1.0000   1.0000   1.0000   1.0000   1.0000   1.0000   1.0000   1.0000
     1.0000   1.0000   1.0000   1.0000   1.0000   1.0000   1.0000   1.0000
     1.0000   1.0000   1.0000   1.0000   1.0000   1.0000   1.0000   1.0000
     1.0000   1.0000   1.0000   1.0000   1.0000   1.0000   1.0000   1.0000
     1.0000   1.0000   1.0000   1.0000   1.0000   1.0000   1.0000   1.0000
     1.0000   1.0000   1.0000   1.0000   1.0000   1.0000   1.0000   1.0000
     1.0000   1.0000   1.0000   1.0000   1.0000   0.2554   0.0088   0.0000
     0.0000   0.0000   0.0000   0.0000   0.0000   0.0000   0.0000   0.0000
     0.0000   0.0000

          k = 0.1875 0.3125 0.1450 ( 17075 PWs)   bands (ev):

  -101.7053-101.7053-101.2887 -59.2323 -59.2323 -59.2281 -59.2281 -58.8351
   -58.8344 -58.8237 -58.6237 -58.6235 -30.6068 -15.8320 -15.8195 -10.9578
   -10.8807 -10.7504  -6.9740  -6.9083  -6.6828  -6.5528  -6.4550  -6.3448
    -1.3207  -1.1714  -1.1683  -1.1094  -0.7755  -0.7439   4.7789   5.0310
     5.6370   5.7918   5.8568   6.2295   6.4299   6.4424   6.8938   6.9492
     7.0132   7.1538   7.3426   7.6438   7.9595   8.2214   8.3578   8.3853
     8.4138   8.5417   8.6026   8.7502   8.7998   9.0539   9.2735   9.3855
     9.4290   9.5185   9.6411   9.7604  10.0421  10.9676  11.1461  12.7019
    13.8204  14.6725  15.0381  15.3642  15.8635  15.9834  16.0178  16.2532
    16.4775  16.8873

     occupation numbers 
     1.0000   1.0000   1.0000   1.0000   1.0000   1.0000   1.0000   1.0000
     1.0000   1.0000   1.0000   1.0000   1.0000   1.0000   1.0000   1.0000
     1.0000   1.0000   1.0000   1.0000   1.0000   1.0000   1.0000   1.0000
     1.0000   1.0000   1.0000   1.0000   1.0000   1.0000   1.0000   1.0000
     1.0000   1.0000   1.0000   1.0000   1.0000   1.0000   1.0000   1.0000
     1.0000   1.0000   1.0000   1.0000   1.0000   1.0000   1.0000   1.0000
     1.0000   1.0000   1.0000   1.0000   1.0000   1.0000   1.0000   1.0000
     1.0000   1.0000   1.0000   1.0000   1.0000   0.2486   0.0172   0.0000
     0.0000   0.0000   0.0000   0.0000   0.0000   0.0000   0.0000   0.0000
     0.0000   0.0000

          k = 0.1875 0.4375 0.0207 ( 17084 PWs)   bands (ev):

  -101.7053-101.7053-101.2887 -59.2323 -59.2323 -59.2281 -59.2280 -58.8351
   -58.8344 -58.8237 -58.6237 -58.6235 -30.6035 -15.8028 -15.7923 -11.0824
   -10.8205 -10.7433  -6.9365  -6.8788  -6.7098  -6.5425  -6.4516  -6.3506
    -1.3188  -1.1441  -1.1408  -1.0810  -0.9237  -0.8888   4.4371   4.8215
     5.5786   5.8278   5.9660   6.0335   6.1855   6.3334   6.8294   6.8847
     7.0439   7.1851   7.4083   7.7064   7.7680   7.9664   8.2390   8.3207
     8.5658   8.5973   8.5983   8.7433   8.8980   9.2856   9.3816   9.4012
     9.6286   9.7144   9.8157   9.8704   9.9541  11.0737  11.3060  12.2934
    13.6851  14.7623  15.2434  15.6077  15.8597  16.4929  16.5521  16.6406
    16.7859  17.1560

     occupation numbers 
     1.0000   1.0000   1.0000   1.0000   1.0000   1.0000   1.0000   1.0000
     1.0000   1.0000   1.0000   1.0000   1.0000   1.0000   1.0000   1.0000
     1.0000   1.0000   1.0000   1.0000   1.0000   1.0000   1.0000   1.0000
     1.0000   1.0000   1.0000   1.0000   1.0000   1.0000   1.0000   1.0000
     1.0000   1.0000   1.0000   1.0000   1.0000   1.0000   1.0000   1.0000
     1.0000   1.0000   1.0000   1.0000   1.0000   1.0000   1.0000   1.0000
     1.0000   1.0000   1.0000   1.0000   1.0000   1.0000   1.0000   1.0000
     1.0000   1.0000   1.0000   1.0000   1.0000   0.1448  -0.0537   0.0000
     0.0000   0.0000   0.0000   0.0000   0.0000   0.0000   0.0000   0.0000
     0.0000   0.0000

          k = 0.1875 0.4375 0.0621 ( 17088 PWs)   bands (ev):

  -101.7053-101.7053-101.2887 -59.2323 -59.2323 -59.2281 -59.2280 -58.8351
   -58.8344 -58.8237 -58.6237 -58.6235 -30.6035 -15.8031 -15.7921 -11.0824
   -10.8206 -10.7433  -6.9606  -6.8415  -6.7097  -6.5653  -6.4517  -6.3411
    -1.3164  -1.1458  -1.1401  -1.0828  -0.9223  -0.8902   4.4471   4.8075
     5.5801   5.8152   5.9774   6.0374   6.1881   6.3309   6.8332   6.9037
     7.0473   7.1891   7.3491   7.6530   7.8296   7.9989   8.2433   8.3335
     8.5349   8.5841   8.6209   8.7492   8.9069   9.2858   9.3793   9.4109
     9.6292   9.6950   9.8051   9.8721   9.9404  11.0760  11.3019  12.2972
    13.7154  14.7587  15.2239  15.6162  15.8622  16.4251  16.5126  16.6883
    16.7819  17.1102

     occupation numbers 
     1.0000   1.0000   1.0000   1.0000   1.0000   1.0000   1.0000   1.0000
     1.0000   1.0000   1.0000   1.0000   1.0000   1.0000   1.0000   1.0000
     1.0000   1.0000   1.0000   1.0000   1.0000   1.0000   1.0000   1.0000
     1.0000   1.0000   1.0000   1.0000   1.0000   1.0000   1.0000   1.0000
     1.0000   1.0000   1.0000   1.0000   1.0000   1.0000   1.0000   1.0000
     1.0000   1.0000   1.0000   1.0000   1.0000   1.0000   1.0000   1.0000
     1.0000   1.0000   1.0000   1.0000   1.0000   1.0000   1.0000   1.0000
     1.0000   1.0000   1.0000   1.0000   1.0000   0.1420  -0.0495   0.0000
     0.0000   0.0000   0.0000   0.0000   0.0000   0.0000   0.0000   0.0000
     0.0000   0.0000

          k = 0.1875 0.4375 0.1036 ( 17064 PWs)   bands (ev):

  -101.7053-101.7053-101.2887 -59.2323 -59.2323 -59.2281 -59.2280 -58.8351
   -58.8344 -58.8237 -58.6237 -58.6235 -30.6035 -15.8033 -15.7918 -11.0824
   -10.8206 -10.7433  -6.9798  -6.7982  -6.7097  -6.6005  -6.4519  -6.3296
    -1.3128  -1.1479  -1.1395  -1.0853  -0.9200  -0.8926   4.4627   4.7865
     5.5823   5.8003   5.9901   6.0429   6.1922   6.3278   6.8295   6.9514
     7.0523   7.1893   7.2685   7.6074   7.8805   8.0443   8.2404   8.3612
     8.5042   8.5618   8.6378   8.7617   8.9188   9.2854   9.3779   9.4279
     9.6285   9.6567   9.7934   9.8756   9.9228  11.0793  11.2962  12.3024
    13.7595  14.7505  15.1943  15.6441  15.8653  16.3613  16.4720  16.6565
    16.7569  17.1366

     occupation numbers 
     1.0000   1.0000   1.0000   1.0000   1.0000   1.0000   1.0000   1.0000
     1.0000   1.0000   1.0000   1.0000   1.0000   1.0000   1.0000   1.0000
     1.0000   1.0000   1.0000   1.0000   1.0000   1.0000   1.0000   1.0000
     1.0000   1.0000   1.0000   1.0000   1.0000   1.0000   1.0000   1.0000
     1.0000   1.0000   1.0000   1.0000   1.0000   1.0000   1.0000   1.0000
     1.0000   1.0000   1.0000   1.0000   1.0000   1.0000   1.0000   1.0000
     1.0000   1.0000   1.0000   1.0000   1.0000   1.0000   1.0000   1.0000
     1.0000   1.0000   1.0000   1.0000   1.0000   0.1378  -0.0434   0.0000
     0.0000   0.0000   0.0000   0.0000   0.0000   0.0000   0.0000   0.0000
     0.0000   0.0000

          k = 0.1875 0.4375 0.1450 ( 17056 PWs)   bands (ev):

  -101.7053-101.7053-101.2887 -59.2323 -59.2323 -59.2281 -59.2280 -58.8351
   -58.8344 -58.8237 -58.6237 -58.6235 -30.6035 -15.8035 -15.7916 -11.0824
   -10.8206 -10.7433  -6.9899  -6.7630  -6.7102  -6.6321  -6.4520  -6.3225
    -1.3102  -1.1494  -1.1391  -1.0871  -0.9181  -0.8945   4.4750   4.7703
     5.5838   5.7912   5.9974   6.0465   6.1956   6.3258   6.8245   7.0084
     7.0627   7.1479   7.2305   7.5801   7.9082   8.0797   8.2306   8.3920
     8.4778   8.5449   8.6464   8.7730   8.9269   9.2847   9.3778   9.4463
     9.6095   9.6360   9.7872   9.8798   9.9103  11.0817  11.2922  12.3061
    13.7918  14.7420  15.1736  15.6750  15.8671  16.3319  16.4225  16.6037
    16.7597  17.1651

     occupation numbers 
     1.0000   1.0000   1.0000   1.0000   1.0000   1.0000   1.0000   1.0000
     1.0000   1.0000   1.0000   1.0000   1.0000   1.0000   1.0000   1.0000
     1.0000   1.0000   1.0000   1.0000   1.0000   1.0000   1.0000   1.0000
     1.0000   1.0000   1.0000   1.0000   1.0000   1.0000   1.0000   1.0000
     1.0000   1.0000   1.0000   1.0000   1.0000   1.0000   1.0000   1.0000
     1.0000   1.0000   1.0000   1.0000   1.0000   1.0000   1.0000   1.0000
     1.0000   1.0000   1.0000   1.0000   1.0000   1.0000   1.0000   1.0000
     1.0000   1.0000   1.0000   1.0000   1.0000   0.1349  -0.0388   0.0000
     0.0000   0.0000   0.0000   0.0000   0.0000   0.0000   0.0000   0.0000
     0.0000   0.0000

          k = 0.3125 0.3125 0.0207 ( 17095 PWs)   bands (ev):

  -101.7053-101.7053-101.2887 -59.2323 -59.2323 -59.2281 -59.2281 -58.8351
   -58.8344 -58.8236 -58.6236 -58.6235 -30.6023 -15.7955 -15.7848 -10.9503
   -10.9289 -10.8055  -6.8373  -6.7921  -6.6278  -6.5774  -6.4855  -6.3149
    -1.3828  -1.3557  -1.3105  -1.1206  -1.0078  -0.9629   4.2908   4.8208
     5.6159   5.6420   5.6569   5.8185   6.1524   6.5400   6.8572   6.8838
     6.9896   7.3943   7.4157   7.4895   7.7868   8.3009   8.3336   8.5504
     8.6708   8.8111   8.8451   8.9213   9.0426   9.2166   9.4146   9.4209
     9.4958   9.5269   9.7845   9.9174  10.1539  11.6541  11.7820  12.7319
    13.2800  14.3620  15.0564  15.3394  16.1555  16.2213  16.3616  16.6721
    16.7594  16.8386

     occupation numbers 
     1.0000   1.0000   1.0000   1.0000   1.0000   1.0000   1.0000   1.0000
     1.0000   1.0000   1.0000   1.0000   1.0000   1.0000   1.0000   1.0000
     1.0000   1.0000   1.0000   1.0000   1.0000   1.0000   1.0000   1.0000
     1.0000   1.0000   1.0000   1.0000   1.0000   1.0000   1.0000   1.0000
     1.0000   1.0000   1.0000   1.0000   1.0000   1.0000   1.0000   1.0000
     1.0000   1.0000   1.0000   1.0000   1.0000   1.0000   1.0000   1.0000
     1.0000   1.0000   1.0000   1.0000   1.0000   1.0000   1.0000   1.0000
     1.0000   1.0000   1.0000   1.0000   1.0000  -0.0313  -0.0024   0.0000
     0.0000   0.0000   0.0000   0.0000   0.0000   0.0000   0.0000   0.0000
     0.0000   0.0000

          k = 0.3125 0.3125 0.0621 ( 17109 PWs)   bands (ev):

  -101.7053-101.7053-101.2887 -59.2323 -59.2323 -59.2281 -59.2281 -58.8351
   -58.8344 -58.8236 -58.6237 -58.6235 -30.6023 -15.7957 -15.7846 -10.9503
   -10.9289 -10.8055  -6.8470  -6.7773  -6.6341  -6.5773  -6.4842  -6.3149
    -1.3820  -1.3565  -1.3086  -1.1230  -1.0063  -0.9643   4.3010   4.8023
     5.6159   5.6504   5.6570   5.8232   6.1465   6.5366   6.8584   6.8860
     7.0127   7.3927   7.4095   7.4240   7.8403   8.3344   8.3466   8.5508
     8.6682   8.7895   8.8506   8.8825   9.0568   9.2182   9.4116   9.4157
     9.5099   9.5338   9.7781   9.8884  10.1532  11.6563  11.7809  12.7528
    13.2925  14.3874  15.0411  15.2936  16.1380  16.1482  16.2431  16.7027
    16.8337  16.8816

     occupation numbers 
     1.0000   1.0000   1.0000   1.0000   1.0000   1.0000   1.0000   1.0000
     1.0000   1.0000   1.0000   1.0000   1.0000   1.0000   1.0000   1.0000
     1.0000   1.0000   1.0000   1.0000   1.0000   1.0000   1.0000   1.0000
     1.0000   1.0000   1.0000   1.0000   1.0000   1.0000   1.0000   1.0000
     1.0000   1.0000   1.0000   1.0000   1.0000   1.0000   1.0000   1.0000
     1.0000   1.0000   1.0000   1.0000   1.0000   1.0000   1.0000   1.0000
     1.0000   1.0000   1.0000   1.0000   1.0000   1.0000   1.0000   1.0000
     1.0000   1.0000   1.0000   1.0000   1.0000  -0.0308  -0.0028   0.0000
     0.0000   0.0000   0.0000   0.0000   0.0000   0.0000   0.0000   0.0000
     0.0000   0.0000

          k = 0.3125 0.3125 0.1036 ( 17096 PWs)   bands (ev):

  -101.7053-101.7053-101.2887 -59.2323 -59.2323 -59.2281 -59.2281 -58.8351
   -58.8344 -58.8236 -58.6236 -58.6235 -30.6023 -15.7960 -15.7843 -10.9503
   -10.9289 -10.8055  -6.8562  -6.7597  -6.6443  -6.5773  -6.4824  -6.3149
    -1.3807  -1.3578  -1.3057  -1.1264  -1.0038  -0.9666   4.3166   4.7753
     5.6160   5.6568   5.6622   5.8303   6.1376   6.5321   6.8602   6.8870
     7.0594   7.3230   7.3978   7.4097   7.8945   8.3667   8.3927   8.5512
     8.6629   8.7630   8.8241   8.8542   9.0722   9.2196   9.4109   9.4138
     9.5221   9.5430   9.7639   9.8520  10.1522  11.6594  11.7794  12.7819
    13.3106  14.4230  15.0311  15.2255  16.0457  16.0841  16.1755  16.7307
    16.8291  16.9476

     occupation numbers 
     1.0000   1.0000   1.0000   1.0000   1.0000   1.0000   1.0000   1.0000
     1.0000   1.0000   1.0000   1.0000   1.0000   1.0000   1.0000   1.0000
     1.0000   1.0000   1.0000   1.0000   1.0000   1.0000   1.0000   1.0000
     1.0000   1.0000   1.0000   1.0000   1.0000   1.0000   1.0000   1.0000
     1.0000   1.0000   1.0000   1.0000   1.0000   1.0000   1.0000   1.0000
     1.0000   1.0000   1.0000   1.0000   1.0000   1.0000   1.0000   1.0000
     1.0000   1.0000   1.0000   1.0000   1.0000   1.0000   1.0000   1.0000
     1.0000   1.0000   1.0000   1.0000   1.0000  -0.0300  -0.0034   0.0000
     0.0000   0.0000   0.0000   0.0000   0.0000   0.0000   0.0000   0.0000
     0.0000   0.0000

          k = 0.3125 0.3125 0.1450 ( 17089 PWs)   bands (ev):

  -101.7053-101.7053-101.2887 -59.2323 -59.2323 -59.2281 -59.2281 -58.8351
   -58.8344 -58.8236 -58.6236 -58.6235 -30.6023 -15.7962 -15.7842 -10.9503
   -10.9289 -10.8055  -6.8614  -6.7473  -6.6527  -6.5773  -6.4812  -6.3149
    -1.3797  -1.3588  -1.3037  -1.1288  -1.0020  -0.9684   4.3286   4.7556
     5.6160   5.6568   5.6700   5.8357   6.1311   6.5292   6.8614   6.8867
     7.1203   7.2381   7.3992   7.4056   7.9247   8.3828   8.4473   8.5513
     8.6571   8.7457   8.7730   8.8558   9.0816   9.2199   9.4113   9.4178
     9.5252   9.5492   9.7479   9.8321  10.1514  11.6616  11.7782  12.8023
    13.3237  14.4471  15.0461  15.1608  15.9860  16.0188  16.1644  16.7438
    16.8279  16.9876

     occupation numbers 
     1.0000   1.0000   1.0000   1.0000   1.0000   1.0000   1.0000   1.0000
     1.0000   1.0000   1.0000   1.0000   1.0000   1.0000   1.0000   1.0000
     1.0000   1.0000   1.0000   1.0000   1.0000   1.0000   1.0000   1.0000
     1.0000   1.0000   1.0000   1.0000   1.0000   1.0000   1.0000   1.0000
     1.0000   1.0000   1.0000   1.0000   1.0000   1.0000   1.0000   1.0000
     1.0000   1.0000   1.0000   1.0000   1.0000   1.0000   1.0000   1.0000
     1.0000   1.0000   1.0000   1.0000   1.0000   1.0000   1.0000   1.0000
     1.0000   1.0000   1.0000   1.0000   1.0000  -0.0295  -0.0038   0.0000
     0.0000   0.0000   0.0000   0.0000   0.0000   0.0000   0.0000   0.0000
     0.0000   0.0000

          k = 0.3125 0.4375 0.0207 ( 17104 PWs)   bands (ev):

  -101.7053-101.7053-101.2887 -59.2323 -59.2323 -59.2281 -59.2281 -58.8351
   -58.8343 -58.8236 -58.6237 -58.6235 -30.5990 -15.7699 -15.7595 -11.0660
   -10.9262 -10.7485  -6.8188  -6.7692  -6.6037  -6.4878  -6.4693  -6.2943
    -1.4264  -1.3925  -1.3326  -1.2388  -1.2261  -1.0976   3.9778   4.5288
     5.5238   5.5520   5.6211   5.6493   6.0309   6.5859   6.8703   6.8996
     7.1135   7.2760   7.3702   7.4158   8.0600   8.2762   8.3357   8.5215
     8.7313   8.8068   9.1153   9.1369   9.1935   9.3400   9.5089   9.5186
     9.5803   9.7494   9.8547   9.9812  10.1114  11.9883  12.0981  12.5116
    13.0971  14.1353  14.9664  15.7049  15.7399  16.1317  16.2065  16.7562
    17.0297  17.2912

     occupation numbers 
     1.0000   1.0000   1.0000   1.0000   1.0000   1.0000   1.0000   1.0000
     1.0000   1.0000   1.0000   1.0000   1.0000   1.0000   1.0000   1.0000
     1.0000   1.0000   1.0000   1.0000   1.0000   1.0000   1.0000   1.0000
     1.0000   1.0000   1.0000   1.0000   1.0000   1.0000   1.0000   1.0000
     1.0000   1.0000   1.0000   1.0000   1.0000   1.0000   1.0000   1.0000
     1.0000   1.0000   1.0000   1.0000   1.0000   1.0000   1.0000   1.0000
     1.0000   1.0000   1.0000   1.0000   1.0000   1.0000   1.0000   1.0000
     1.0000   1.0000   1.0000   1.0000   1.0000   0.0000   0.0000   0.0000
     0.0000   0.0000   0.0000   0.0000   0.0000   0.0000   0.0000   0.0000
     0.0000   0.0000

          k = 0.3125 0.4375 0.0621 ( 17111 PWs)   bands (ev):

  -101.7053-101.7053-101.2887 -59.2323 -59.2323 -59.2281 -59.2281 -58.8351
   -58.8343 -58.8236 -58.6237 -58.6235 -30.5990 -15.7701 -15.7593 -11.0660
   -10.9262 -10.7485  -6.8386  -6.7381  -6.6037  -6.5146  -6.4585  -6.2895
    -1.4259  -1.3929  -1.3290  -1.2408  -1.2253  -1.1005   3.9858   4.5152
     5.5297   5.5550   5.6056   5.6681   6.0246   6.5881   6.8591   6.9112
     7.1208   7.2720   7.3631   7.3964   8.0826   8.3053   8.3561   8.5221
     8.7322   8.7934   9.0517   9.1387   9.2259   9.3379   9.4972   9.5210
     9.5795   9.7404   9.8542   9.9754  10.1096  11.9903  12.0967  12.5268
    13.1272  14.1572  14.9719  15.5985  15.7607  15.9954  16.1946  16.8575
    17.1284  17.2261

     occupation numbers 
     1.0000   1.0000   1.0000   1.0000   1.0000   1.0000   1.0000   1.0000
[...]
     9.4172   9.5131   9.7248   9.8522  10.0559  10.9472  11.1508  12.6844
    13.7633  14.7311  14.9000  15.4796  15.8179  15.8439  16.2197  16.5323
    16.6909  16.8597

     occupation numbers 
     1.0000   1.0000   1.0000   1.0000   1.0000   1.0000   1.0000   1.0000
     1.0000   1.0000   1.0000   1.0000   1.0000   1.0000   1.0000   1.0000
     1.0000   1.0000   1.0000   1.0000   1.0000   1.0000   1.0000   1.0000
     1.0000   1.0000   1.0000   1.0000   1.0000   1.0000   1.0000   1.0000
     1.0000   1.0000   1.0000   1.0000   1.0000   1.0000   1.0000   1.0000
     1.0000   1.0000   1.0000   1.0000   1.0000   1.0000   1.0000   1.0000
     1.0000   1.0000   1.0000   1.0000   1.0000   1.0000   1.0000   1.0000
     1.0000   1.0000   1.0000   1.0000   1.0000   0.2819  -0.0053   0.0000
     0.0000   0.0000   0.0000   0.0000   0.0000   0.0000   0.0000   0.0000
     0.0000   0.0000

          k = 0.3125 0.1875-0.0621 ( 17079 PWs)   bands (ev):

  -101.7053-101.7053-101.2887 -59.2323 -59.2322 -59.2281 -59.2281 -58.8351
   -58.8344 -58.8237 -58.6236 -58.6235 -30.6069 -15.8314 -15.8200 -10.9518
   -10.8819 -10.7516  -6.9907  -6.8780  -6.7331  -6.5196  -6.4436  -6.3597
    -1.3247  -1.1718  -1.1679  -1.1058  -0.7803  -0.7392   4.7443   5.0973
     5.6311   5.8083   5.8433   6.2486   6.4175   6.4382   6.8220   6.9153
     6.9829   7.3185   7.4170   7.6525   7.8456   8.1643   8.3116   8.3749
     8.4614   8.5796   8.6175   8.7488   8.7896   9.0424   9.2586   9.3100
     9.4166   9.5135   9.7156   9.8197  10.0510  10.9504  11.1467  12.6897
    13.7799  14.7173  14.9302  15.4576  15.8313  15.8610  16.1470  16.4558
    16.6677  16.8498

     occupation numbers 
     1.0000   1.0000   1.0000   1.0000   1.0000   1.0000   1.0000   1.0000
     1.0000   1.0000   1.0000   1.0000   1.0000   1.0000   1.0000   1.0000
     1.0000   1.0000   1.0000   1.0000   1.0000   1.0000   1.0000   1.0000
     1.0000   1.0000   1.0000   1.0000   1.0000   1.0000   1.0000   1.0000
     1.0000   1.0000   1.0000   1.0000   1.0000   1.0000   1.0000   1.0000
     1.0000   1.0000   1.0000   1.0000   1.0000   1.0000   1.0000   1.0000
     1.0000   1.0000   1.0000   1.0000   1.0000   1.0000   1.0000   1.0000
     1.0000   1.0000   1.0000   1.0000   1.0000   0.2756   0.0032   0.0000
     0.0000   0.0000   0.0000   0.0000   0.0000   0.0000   0.0000   0.0000
     0.0000   0.0000

          k = 0.3125 0.1875-0.1036 ( 17074 PWs)   bands (ev):

  -101.7053-101.7053-101.2887 -59.2323 -59.2322 -59.2281 -59.2281 -58.8351
   -58.8344 -58.8237 -58.6236 -58.6235 -30.6069 -15.8317 -15.8197 -10.9518
   -10.8819 -10.7516  -6.9833  -6.8994  -6.7054  -6.5379  -6.4437  -6.3549
    -1.3227  -1.1700  -1.1685  -1.1094  -0.7777  -0.7418   4.7662   5.0660
     5.6347   5.8006   5.8502   6.2407   6.4229   6.4416   6.8830   6.9041
     6.9980   7.2637   7.3484   7.6461   7.9129   8.1952   8.3349   8.3774
     8.4423   8.5631   8.6041   8.7525   8.7962   9.0465   9.2629   9.3464
     9.4166   9.5142   9.6867   9.7788  10.0452  10.9550  11.1409  12.6969
    13.8038  14.6958  14.9847  15.4120  15.8481  15.9072  16.0660  16.3757
    16.5349  16.8818

     occupation numbers 
     1.0000   1.0000   1.0000   1.0000   1.0000   1.0000   1.0000   1.0000
     1.0000   1.0000   1.0000   1.0000   1.0000   1.0000   1.0000   1.0000
     1.0000   1.0000   1.0000   1.0000   1.0000   1.0000   1.0000   1.0000
     1.0000   1.0000   1.0000   1.0000   1.0000   1.0000   1.0000   1.0000
     1.0000   1.0000   1.0000   1.0000   1.0000   1.0000   1.0000   1.0000
     1.0000   1.0000   1.0000   1.0000   1.0000   1.0000   1.0000   1.0000
     1.0000   1.0000   1.0000   1.0000   1.0000   1.0000   1.0000   1.0000
     1.0000   1.0000   1.0000   1.0000   1.0000   0.2664   0.0156   0.0000
     0.0000   0.0000   0.0000   0.0000   0.0000   0.0000   0.0000   0.0000
     0.0000   0.0000

          k = 0.3125 0.1875-0.1450 ( 17075 PWs)   bands (ev):

  -101.7053-101.7053-101.2887 -59.2323 -59.2322 -59.2281 -59.2281 -58.8351
   -58.8344 -58.8237 -58.6236 -58.6235 -30.6069 -15.8319 -15.8195 -10.9518
   -10.8819 -10.7516  -6.9762  -6.9144  -6.6850  -6.5533  -6.4438  -6.3519
    -1.3212  -1.1694  -1.1682  -1.1121  -0.7756  -0.7439   4.7847   5.0412
     5.6371   5.7964   5.8539   6.2354   6.4291   6.4418   6.8915   6.9457
     7.0250   7.1642   7.3416   7.6370   7.9529   8.2175   8.3583   8.3884
     8.4140   8.5430   8.6025   8.7502   8.8041   9.0486   9.2674   9.3805
     9.4209   9.5150   9.6418   9.7603  10.0417  10.9584  11.1369  12.7017
    13.8212  14.6797  15.0366  15.3640  15.8563  15.9765  16.0178  16.2697
    16.4831  16.8779

     occupation numbers 
     1.0000   1.0000   1.0000   1.0000   1.0000   1.0000   1.0000   1.0000
     1.0000   1.0000   1.0000   1.0000   1.0000   1.0000   1.0000   1.0000
     1.0000   1.0000   1.0000   1.0000   1.0000   1.0000   1.0000   1.0000
     1.0000   1.0000   1.0000   1.0000   1.0000   1.0000   1.0000   1.0000
     1.0000   1.0000   1.0000   1.0000   1.0000   1.0000   1.0000   1.0000
     1.0000   1.0000   1.0000   1.0000   1.0000   1.0000   1.0000   1.0000
     1.0000   1.0000   1.0000   1.0000   1.0000   1.0000   1.0000   1.0000
     1.0000   1.0000   1.0000   1.0000   1.0000   0.2596   0.0245   0.0000
     0.0000   0.0000   0.0000   0.0000   0.0000   0.0000   0.0000   0.0000
     0.0000   0.0000

          k = 0.4375 0.1875-0.0207 ( 17084 PWs)   bands (ev):

  -101.7053-101.7053-101.2887 -59.2323 -59.2322 -59.2282 -59.2281 -58.8351
   -58.8344 -58.8237 -58.6236 -58.6236 -30.6036 -15.8028 -15.7922 -11.0736
   -10.8228 -10.7445  -6.9465  -6.8829  -6.7048  -6.5421  -6.4368  -6.3678
    -1.3207  -1.1439  -1.1386  -1.0808  -0.9252  -0.8902   4.4471   4.8397
     5.5773   5.8354   5.9615   6.0430   6.1828   6.3326   6.8310   6.8889
     7.0476   7.1836   7.4234   7.6928   7.7569   7.9648   8.2479   8.3194
     8.5624   8.5920   8.5959   8.7532   8.8988   9.2784   9.3719   9.3951
     9.6240   9.7071   9.8130   9.8714   9.9534  11.0570  11.2908  12.2941
    13.6870  14.7620  15.2627  15.6108  15.8702  16.4959  16.5439  16.6278
    16.7797  17.1612

     occupation numbers 
     1.0000   1.0000   1.0000   1.0000   1.0000   1.0000   1.0000   1.0000
     1.0000   1.0000   1.0000   1.0000   1.0000   1.0000   1.0000   1.0000
     1.0000   1.0000   1.0000   1.0000   1.0000   1.0000   1.0000   1.0000
     1.0000   1.0000   1.0000   1.0000   1.0000   1.0000   1.0000   1.0000
     1.0000   1.0000   1.0000   1.0000   1.0000   1.0000   1.0000   1.0000
     1.0000   1.0000   1.0000   1.0000   1.0000   1.0000   1.0000   1.0000
     1.0000   1.0000   1.0000   1.0000   1.0000   1.0000   1.0000   1.0000
     1.0000   1.0000   1.0000   1.0000   1.0000   0.1577  -0.0491   0.0000
     0.0000   0.0000   0.0000   0.0000   0.0000   0.0000   0.0000   0.0000
     0.0000   0.0000

          k = 0.4375 0.1875-0.0621 ( 17088 PWs)   bands (ev):

  -101.7053-101.7053-101.2887 -59.2323 -59.2322 -59.2282 -59.2281 -58.8351
   -58.8344 -58.8237 -58.6236 -58.6236 -30.6036 -15.8030 -15.7920 -11.0736
   -10.8228 -10.7445  -6.9694  -6.8464  -6.7052  -6.5660  -6.4369  -6.3570
    -1.3182  -1.1456  -1.1380  -1.0826  -0.9237  -0.8917   4.4571   4.8255
     5.5789   5.8223   5.9735   6.0471   6.1854   6.3303   6.8330   6.9094
     7.0511   7.1897   7.3606   7.6362   7.8229   7.9981   8.2534   8.3310
     8.5308   8.5825   8.6163   8.7581   8.9076   9.2774   9.3696   9.4053
     9.6245   9.6866   9.8034   9.8732   9.9401  11.0594  11.2868  12.2978
    13.7171  14.7583  15.2440  15.6181  15.8733  16.4230  16.5109  16.6735
    16.7736  17.1192

     occupation numbers 
     1.0000   1.0000   1.0000   1.0000   1.0000   1.0000   1.0000   1.0000
     1.0000   1.0000   1.0000   1.0000   1.0000   1.0000   1.0000   1.0000
     1.0000   1.0000   1.0000   1.0000   1.0000   1.0000   1.0000   1.0000
     1.0000   1.0000   1.0000   1.0000   1.0000   1.0000   1.0000   1.0000
     1.0000   1.0000   1.0000   1.0000   1.0000   1.0000   1.0000   1.0000
     1.0000   1.0000   1.0000   1.0000   1.0000   1.0000   1.0000   1.0000
     1.0000   1.0000   1.0000   1.0000   1.0000   1.0000   1.0000   1.0000
     1.0000   1.0000   1.0000   1.0000   1.0000   0.1547  -0.0445   0.0000
     0.0000   0.0000   0.0000   0.0000   0.0000   0.0000   0.0000   0.0000
     0.0000   0.0000

          k = 0.4375 0.1875-0.1036 ( 17064 PWs)   bands (ev):

  -101.7053-101.7053-101.2887 -59.2323 -59.2322 -59.2282 -59.2281 -58.8351
   -58.8344 -58.8237 -58.6236 -58.6236 -30.6036 -15.8032 -15.7917 -11.0736
   -10.8228 -10.7445  -6.9883  -6.8027  -6.7065  -6.6018  -6.4371  -6.3444
    -1.3145  -1.1479  -1.1373  -1.0850  -0.9215  -0.8939   4.4726   4.8042
     5.5812   5.8072   5.9865   6.0528   6.1895   6.3273   6.8284   6.9569
     7.0576   7.1952   7.2742   7.5880   7.8763   8.0446   8.2510   8.3584
     8.5002   8.5610   8.6332   8.7694   8.9190   9.2753   9.3683   9.4227
     9.6231   9.6482   9.7928   9.8769   9.9227  11.0629  11.2812  12.3029
    13.7609  14.7501  15.2150  15.6448  15.8775  16.3585  16.4726  16.6408
    16.7518  17.1395

     occupation numbers 
     1.0000   1.0000   1.0000   1.0000   1.0000   1.0000   1.0000   1.0000
     1.0000   1.0000   1.0000   1.0000   1.0000   1.0000   1.0000   1.0000
     1.0000   1.0000   1.0000   1.0000   1.0000   1.0000   1.0000   1.0000
     1.0000   1.0000   1.0000   1.0000   1.0000   1.0000   1.0000   1.0000
     1.0000   1.0000   1.0000   1.0000   1.0000   1.0000   1.0000   1.0000
     1.0000   1.0000   1.0000   1.0000   1.0000   1.0000   1.0000   1.0000
     1.0000   1.0000   1.0000   1.0000   1.0000   1.0000   1.0000   1.0000
     1.0000   1.0000   1.0000   1.0000   1.0000   0.1504  -0.0377   0.0000
     0.0000   0.0000   0.0000   0.0000   0.0000   0.0000   0.0000   0.0000
     0.0000   0.0000

          k = 0.4375 0.1875-0.1450 ( 17056 PWs)   bands (ev):

  -101.7053-101.7053-101.2887 -59.2323 -59.2322 -59.2282 -59.2281 -58.8351
   -58.8344 -58.8237 -58.6236 -58.6236 -30.6036 -15.8034 -15.7915 -11.0736
   -10.8228 -10.7445  -6.9983  -6.7654  -6.7106  -6.6326  -6.4372  -6.3367
    -1.3118  -1.1496  -1.1369  -1.0867  -0.9196  -0.8958   4.4849   4.7879
     5.5828   5.7980   5.9939   6.0566   6.1928   6.3254   6.8232   7.0084
     7.0769   7.1562   7.2311   7.5587   7.9051   8.0804   8.2412   8.3895
     8.4744   8.5443   8.6418   8.7802   8.9267   9.2734   9.3684   9.4412
     9.6007   9.6311   9.7871   9.8813   9.9101  11.0654  11.2773  12.3064
    13.7930  14.7418  15.1942  15.6750  15.8801  16.3280  16.4258  16.5906
    16.7533  17.1649

     occupation numbers 
     1.0000   1.0000   1.0000   1.0000   1.0000   1.0000   1.0000   1.0000
     1.0000   1.0000   1.0000   1.0000   1.0000   1.0000   1.0000   1.0000
     1.0000   1.0000   1.0000   1.0000   1.0000   1.0000   1.0000   1.0000
     1.0000   1.0000   1.0000   1.0000   1.0000   1.0000   1.0000   1.0000
     1.0000   1.0000   1.0000   1.0000   1.0000   1.0000   1.0000   1.0000
     1.0000   1.0000   1.0000   1.0000   1.0000   1.0000   1.0000   1.0000
     1.0000   1.0000   1.0000   1.0000   1.0000   1.0000   1.0000   1.0000
     1.0000   1.0000   1.0000   1.0000   1.0000   0.1473  -0.0328   0.0000
     0.0000   0.0000   0.0000   0.0000   0.0000   0.0000   0.0000   0.0000
     0.0000   0.0000

          k = 0.4375 0.3125-0.0207 ( 17104 PWs)   bands (ev):

  -101.7053-101.7053-101.2887 -59.2323 -59.2322 -59.2282 -59.2281 -58.8351
   -58.8343 -58.8236 -58.6236 -58.6236 -30.5991 -15.7699 -15.7594 -11.0572
   -10.9322 -10.7494  -6.8275  -6.7715  -6.5928  -6.4852  -6.4614  -6.3090
    -1.4251  -1.3914  -1.3323  -1.2388  -1.2282  -1.0993   3.9820   4.5377
     5.5259   5.5541   5.6180   5.6491   6.0299   6.5900   6.8647   6.8970
     7.1296   7.2731   7.3662   7.4075   8.0607   8.2764   8.3350   8.5215
     8.7322   8.8119   9.1175   9.1347   9.1989   9.3344   9.5073   9.5214
     9.5692   9.7452   9.8550   9.9811  10.1114  11.9779  12.0913  12.5092
    13.1030  14.1380  14.9680  15.7133  15.7504  16.1318  16.1933  16.7541
    17.0435  17.2912

     occupation numbers 
     1.0000   1.0000   1.0000   1.0000   1.0000   1.0000   1.0000   1.0000
     1.0000   1.0000   1.0000   1.0000   1.0000   1.0000   1.0000   1.0000
     1.0000   1.0000   1.0000   1.0000   1.0000   1.0000   1.0000   1.0000
     1.0000   1.0000   1.0000   1.0000   1.0000   1.0000   1.0000   1.0000
     1.0000   1.0000   1.0000   1.0000   1.0000   1.0000   1.0000   1.0000
     1.0000   1.0000   1.0000   1.0000   1.0000   1.0000   1.0000   1.0000
     1.0000   1.0000   1.0000   1.0000   1.0000   1.0000   1.0000   1.0000
     1.0000   1.0000   1.0000   1.0000   1.0000   0.0000   0.0000   0.0000
     0.0000   0.0000   0.0000   0.0000   0.0000   0.0000   0.0000   0.0000
     0.0000   0.0000

          k = 0.4375 0.3125-0.0621 ( 17111 PWs)   bands (ev):

  -101.7053-101.7053-101.2887 -59.2323 -59.2322 -59.2282 -59.2281 -58.8351
   -58.8343 -58.8236 -58.6236 -58.6236 -30.5991 -15.7701 -15.7592 -11.0572
   -10.9322 -10.7495  -6.8461  -6.7414  -6.5928  -6.5138  -6.4493  -6.3040
    -1.4246  -1.3918  -1.3287  -1.2407  -1.2274  -1.1022   3.9899   4.5239
     5.5318   5.5573   5.6040   5.6662   6.0236   6.5922   6.8524   6.9104
     7.1383   7.2691   7.3539   7.3911   8.0831   8.3060   8.3555   8.5221
     8.7331   8.7984   9.0561   9.1340   9.2307   9.3325   9.4976   9.5219
     9.5683   9.7360   9.8547   9.9753  10.1096  11.9804  12.0899  12.5243
    13.1325  14.1600  14.9733  15.6055  15.7723  15.9952  16.1849  16.8556
    17.1274  17.2405

     occupation numbers 
     1.0000   1.0000   1.0000   1.0000   1.0000   1.0000   1.0000   1.0000
     1.0000   1.0000   1.0000   1.0000   1.0000   1.0000   1.0000   1.0000
     1.0000   1.0000   1.0000   1.0000   1.0000   1.0000   1.0000   1.0000
     1.0000   1.0000   1.0000   1.0000   1.0000   1.0000   1.0000   1.0000
     1.0000   1.0000   1.0000   1.0000   1.0000   1.0000   1.0000   1.0000
     1.0000   1.0000   1.0000   1.0000   1.0000   1.0000   1.0000   1.0000
     1.0000   1.0000   1.0000   1.0000   1.0000   1.0000   1.0000   1.0000
     1.0000   1.0000   1.0000   1.0000   1.0000   0.0000   0.0000   0.0000
     0.0000   0.0000   0.0000   0.0000   0.0000   0.0000   0.0000   0.0000
     0.0000   0.0000

          k = 0.4375 0.3125-0.1036 ( 17092 PWs)   bands (ev):

  -101.7053-101.7053-101.2887 -59.2323 -59.2322 -59.2282 -59.2281 -58.8351
   -58.8343 -58.8236 -58.6236 -58.6236 -30.5991 -15.7703 -15.7590 -11.0572
   -10.9322 -10.7495  -6.8617  -6.7046  -6.5928  -6.5482  -6.4426  -6.2975
    -1.4238  -1.3924  -1.3233  -1.2438  -1.2263  -1.1065   4.0018   4.5039
     5.5402   5.5628   5.5915   5.6825   6.0143   6.5954   6.8408   6.9237
     7.1540   7.2637   7.3239   7.3794   8.1077   8.3338   8.4169   8.5230
     8.7343   8.7768   8.9770   9.1362   9.2538   9.3296   9.4892   9.5124
     9.5679   9.7244   9.8568   9.9682  10.1073  11.9839  12.0879  12.5454
    13.1748  14.1934  14.9836  15.4846  15.7953  15.8462  16.1550  16.9661
    17.0594  17.2482

     occupation numbers 
     1.0000   1.0000   1.0000   1.0000   1.0000   1.0000   1.0000   1.0000
     1.0000   1.0000   1.0000   1.0000   1.0000   1.0000   1.0000   1.0000
     1.0000   1.0000   1.0000   1.0000   1.0000   1.0000   1.0000   1.0000
     1.0000   1.0000   1.0000   1.0000   1.0000   1.0000   1.0000   1.0000
     1.0000   1.0000   1.0000   1.0000   1.0000   1.0000   1.0000   1.0000
     1.0000   1.0000   1.0000   1.0000   1.0000   1.0000   1.0000   1.0000
     1.0000   1.0000   1.0000   1.0000   1.0000   1.0000   1.0000   1.0000
     1.0000   1.0000   1.0000   1.0000   1.0000   0.0000   0.0000   0.0000
     0.0000   0.0000   0.0000   0.0000   0.0000   0.0000   0.0000   0.0000
     0.0000   0.0000

          k = 0.4375 0.3125-0.1450 ( 17096 PWs)   bands (ev):

  -101.7053-101.7053-101.2887 -59.2323 -59.2322 -59.2282 -59.2281 -58.8351
   -58.8343 -58.8236 -58.6236 -58.6236 -30.5991 -15.7705 -15.7588 -11.0572
   -10.9322 -10.7495  -6.8700  -6.6729  -6.5921  -6.5793  -6.4398  -6.2932
    -1.4232  -1.3928  -1.3191  -1.2463  -1.2254  -1.1096   4.0108   4.4893
     5.5465   5.5673   5.5837   5.6921   6.0076   6.5976   6.8342   6.9316
     7.1694   7.2615   7.2940   7.3751   8.1214   8.3466   8.4877   8.5238
     8.7334   8.7584   8.9122   9.1378   9.2654   9.3274   9.4852   9.5006
     9.5678   9.7181   9.8594   9.9635  10.1057  11.9863  12.0865  12.5603
    13.2050  14.2186  14.9941  15.4104  15.7450  15.8137  16.1360  16.9851
    17.0377  17.2240

     occupation numbers 
     1.0000   1.0000   1.0000   1.0000   1.0000   1.0000   1.0000   1.0000
     1.0000   1.0000   1.0000   1.0000   1.0000   1.0000   1.0000   1.0000
     1.0000   1.0000   1.0000   1.0000   1.0000   1.0000   1.0000   1.0000
     1.0000   1.0000   1.0000   1.0000   1.0000   1.0000   1.0000   1.0000
     1.0000   1.0000   1.0000   1.0000   1.0000   1.0000   1.0000   1.0000
     1.0000   1.0000   1.0000   1.0000   1.0000   1.0000   1.0000   1.0000
     1.0000   1.0000   1.0000   1.0000   1.0000   1.0000   1.0000   1.0000
     1.0000   1.0000   1.0000   1.0000   1.0000   0.0000   0.0000   0.0000
     0.0000   0.0000   0.0000   0.0000   0.0000   0.0000   0.0000   0.0000
     0.0000   0.0000

     the Fermi energy is    10.7746 ev
     (compare with:    10.3192 eV, computed in scf)

     Writing all to output data dir ./YBCO6/YBCO6.save/
 
     init_run     :      1.17s CPU      1.36s WALL (       1 calls)
     electrons    :    264.86s CPU    268.45s WALL (       1 calls)

     Called by init_run:
     wfcinit      :      0.00s CPU      0.00s WALL (       1 calls)
     wfcinit:atom :      0.14s CPU      0.18s WALL (      64 calls)
     wfcinit:wfcr :      8.74s CPU      8.84s WALL (      64 calls)
     potinit      :      0.05s CPU      0.08s WALL (       1 calls)
     hinit0       :      0.27s CPU      0.28s WALL (       1 calls)

     Called by electrons:
     c_bands      :    264.76s CPU    268.33s WALL (       1 calls)
     v_of_rho     :      0.04s CPU      0.06s WALL (       1 calls)
     v_h          :      0.00s CPU      0.01s WALL (       1 calls)
     v_xc         :      0.04s CPU      0.06s WALL (       1 calls)
     newd         :      0.78s CPU      0.94s WALL (       1 calls)

     Called by c_bands:
     init_us_2    :      0.15s CPU      0.19s WALL (      64 calls)
     init_us_2:cp :      0.15s CPU      0.19s WALL (      64 calls)
     cegterg      :    253.35s CPU    256.66s WALL (     268 calls)

     Called by sum_band:

     Called by *egterg:
     cdiaghg      :     17.24s CPU     17.33s WALL (    4905 calls)
     cegterg:over :     25.92s CPU     26.21s WALL (    4841 calls)
     cegterg:upda :     15.49s CPU     15.53s WALL (    4841 calls)
     cegterg:last :     35.43s CPU     35.45s WALL (    1674 calls)
     h_psi        :    137.84s CPU    140.15s WALL (    5173 calls)
     s_psi        :     21.73s CPU     22.17s WALL (    5173 calls)
     g_psi        :      0.95s CPU      0.95s WALL (    4841 calls)

     Called by h_psi:
     h_psi:calbec :     22.06s CPU     22.38s WALL (    5173 calls)
     vloc_psi     :     92.05s CPU     93.87s WALL (    5173 calls)
     add_vuspsi   :     21.98s CPU     22.05s WALL (    5173 calls)

     General routines
     calbec       :     22.05s CPU     22.37s WALL (    5173 calls)
     fft          :      0.03s CPU      0.04s WALL (      13 calls)
     ffts         :      0.00s CPU      0.00s WALL (       1 calls)
     fftw         :     69.75s CPU     71.11s WALL (  272918 calls)
     interpolate  :      0.00s CPU      0.00s WALL (       1 calls)
     davcio       :      0.16s CPU      0.23s WALL (     128 calls)
 
     Parallel routines
 
     PWSCF        :   4m26.42s CPU   4m30.79s WALL

 
   This run was terminated on:   1:58:47  29Dec2023            

=------------------------------------------------------------------------------=
   JOB DONE.
=------------------------------------------------------------------------------=
