
     Program PWSCF v.7.2 starts on 29Dec2023 at  0:14:50 

     This program is part of the open-source Quantum ESPRESSO suite
     for quantum simulation of materials; please cite
         "P. Giannozzi et al., J. Phys.:Condens. Matter 21 395502 (2009);
         "P. Giannozzi et al., J. Phys.:Condens. Matter 29 465901 (2017);
         "P. Giannozzi et al., J. Chem. Phys. 152 154105 (2020);
          URL http://www.quantum-espresso.org", 
     in publications or presentations arising from this work. More details at
     http://www.quantum-espresso.org/quote

     Parallel version (MPI), running on     4 processors

     MPI processes distributed on     1 nodes
     7320 MiB available memory on the printing compute node when the environment starts
 
     Waiting for input...
     Reading input from standard input

     Current dimensions of program PWSCF are:
     Max number of different atomic species (ntypx) = 10
     Max number of k-points (npk) =  40000
     Max angular momentum in pseudopotentials (lmaxx) =  4
 
     R & G space division:  proc/nbgrp/npool/nimage =       4
     Subspace diagonalization in iterative solution of the eigenvalue problem:
     a serial algorithm will be used

 
     Parallelization info
     --------------------
     sticks:   dense  smooth     PW     G-vecs:    dense   smooth      PW
     Min         744     370    105                93835    33140    5031
     Max         746     371    106                93842    33157    5044
     Sum        2981    1481    421               375353   132581   20139
 
     Using Slab Decomposition
 


     bravais-lattice index     =            6
     lattice parameter (alat)  =       7.2193  a.u.
     unit-cell volume          =    1150.7053 (a.u.)^3
     number of atoms/cell      =           12
     number of atomic types    =            4
     number of electrons       =       124.00
     number of Kohn-Sham states=           74
     kinetic-energy cutoff     =      90.0000  Ry
     charge density cutoff     =     720.0000  Ry
     scf convergence threshold =      1.0E-08
     mixing beta               =       0.1000
     number of iterations used =            8  plain     mixing
     energy convergence thresh.=      1.0E-04
     force convergence thresh. =      1.0E-03
     press convergence thresh. =      5.0E-01
     Exchange-correlation= SLA  PW   PBE  PBE
                           (   1   4   3   4   0   0   0)
     nstep                     =           50


     celldm(1)=   7.219321  celldm(2)=   0.000000  celldm(3)=   3.058265
     celldm(4)=   0.000000  celldm(5)=   0.000000  celldm(6)=   0.000000

     crystal axes: (cart. coord. in units of alat)
               a(1) = (   1.000000   0.000000   0.000000 )  
               a(2) = (   0.000000   1.000000   0.000000 )  
               a(3) = (   0.000000   0.000000   3.058265 )  

     reciprocal axes: (cart. coord. in units 2 pi/alat)
               b(1) = (  1.000000  0.000000  0.000000 )  
               b(2) = (  0.000000  1.000000  0.000000 )  
               b(3) = (  0.000000  0.000000  0.326983 )  


     PseudoPot. # 1 for Y  read from file:
     ~/q-e/pseudo/all_pbe_UPF_v1.5/y_pbe_v1.4.uspp.F.UPF
     MD5 check sum: Not computed, couldn't open file
     Pseudo is Ultrasoft + core correction, Zval = 11.0
     Generated by new atomic code, or converted to UPF format
     Using radial grid of  885 points,  6 beta functions with: 
                l(1) =   0
                l(2) =   0
                l(3) =   1
                l(4) =   1
                l(5) =   2
                l(6) =   2
     Q(r) pseudized with  8 coefficients,  rinner =    1.200   1.200   1.200
                                                       1.200   1.200

     PseudoPot. # 2 for Ba read from file:
     ~/q-e/pseudo/all_pbe_UPF_v1.5/ba_pbe_v1.uspp.F.UPF
     MD5 check sum: Not computed, couldn't open file
     Pseudo is Ultrasoft + core correction, Zval = 10.0
     Generated by new atomic code, or converted to UPF format
     Using radial grid of  907 points,  7 beta functions with: 
                l(1) =   0
                l(2) =   0
                l(3) =   1
                l(4) =   1
                l(5) =   2
                l(6) =   2
                l(7) =   3
     Q(r) pseudized with  6 coefficients,  rinner =    1.700   1.700   1.700
                                                       1.700   1.700   1.700
                                                       1.700

     PseudoPot. # 3 for Cu read from file:
     ~/q-e/pseudo/all_pbe_UPF_v1.5/cu_pbe_v1.2.uspp.F.UPF
     MD5 check sum: Not computed, couldn't open file
     Pseudo is Ultrasoft + core correction, Zval = 19.0
     Generated by new atomic code, or converted to UPF format
     Using radial grid of  867 points,  6 beta functions with: 
                l(1) =   0
                l(2) =   0
                l(3) =   1
                l(4) =   1
                l(5) =   2
                l(6) =   2
     Q(r) pseudized with  8 coefficients,  rinner =    1.150   1.150   1.150
                                                       1.150   1.150

     PseudoPot. # 4 for O  read from file:
     ~/q-e/pseudo/all_pbe_UPF_v1.5/o_pbe_v1.2.uspp.F.UPF
     MD5 check sum: Not computed, couldn't open file
     Pseudo is Ultrasoft + core correction, Zval =  6.0
     Generated by new atomic code, or converted to UPF format
     Using radial grid of  737 points,  5 beta functions with: 
                l(1) =   0
                l(2) =   0
                l(3) =   1
                l(4) =   1
                l(5) =   2
     Q(r) pseudized with  8 coefficients,  rinner =    0.900   0.900   0.900
                                                       0.900   0.900

     atomic species   valence    mass     pseudopotential
     Y                11.00    88.90584     Y ( 1.00)
     Ba               10.00   137.32700     Ba( 1.00)
     Cu               19.00    63.54600     Cu( 1.00)
     O                 6.00    15.99900     O ( 1.00)

      8 Sym. Ops., with inversion, found


                                    s                        frac. trans.

      isym =  1     identity                                     

 cryst.   s( 1) = (     1          0          0      )
                  (     0          1          0      )
                  (     0          0          1      )

 cart.    s( 1) = (  1.0000000  0.0000000  0.0000000 )
                  (  0.0000000  1.0000000  0.0000000 )
                  (  0.0000000  0.0000000  1.0000000 )


      isym =  2     180 deg rotation - cart. axis [0,0,1]        

 cryst.   s( 2) = (    -1          0          0      )
                  (     0         -1          0      )
                  (     0          0          1      )

 cart.    s( 2) = ( -1.0000000  0.0000000  0.0000000 )
                  (  0.0000000 -1.0000000  0.0000000 )
                  (  0.0000000  0.0000000  1.0000000 )


      isym =  3     180 deg rotation - cart. axis [0,1,0]        

 cryst.   s( 3) = (    -1          0          0      )
                  (     0          1          0      )
                  (     0          0         -1      )

 cart.    s( 3) = ( -1.0000000  0.0000000  0.0000000 )
                  (  0.0000000  1.0000000  0.0000000 )
                  (  0.0000000  0.0000000 -1.0000000 )


      isym =  4     180 deg rotation - cart. axis [1,0,0]        

 cryst.   s( 4) = (     1          0          0      )
                  (     0         -1          0      )
                  (     0          0         -1      )

 cart.    s( 4) = (  1.0000000  0.0000000  0.0000000 )
                  (  0.0000000 -1.0000000  0.0000000 )
                  (  0.0000000  0.0000000 -1.0000000 )


      isym =  5     inversion                                    

 cryst.   s( 5) = (    -1          0          0      )
                  (     0         -1          0      )
                  (     0          0         -1      )

 cart.    s( 5) = ( -1.0000000  0.0000000  0.0000000 )
                  (  0.0000000 -1.0000000  0.0000000 )
                  (  0.0000000  0.0000000 -1.0000000 )


      isym =  6     inv. 180 deg rotation - cart. axis [0,0,1]   

 cryst.   s( 6) = (     1          0          0      )
                  (     0          1          0      )
                  (     0          0         -1      )

 cart.    s( 6) = (  1.0000000  0.0000000  0.0000000 )
                  (  0.0000000  1.0000000  0.0000000 )
                  (  0.0000000  0.0000000 -1.0000000 )


      isym =  7     inv. 180 deg rotation - cart. axis [0,1,0]   

 cryst.   s( 7) = (     1          0          0      )
                  (     0         -1          0      )
                  (     0          0          1      )

 cart.    s( 7) = (  1.0000000  0.0000000  0.0000000 )
                  (  0.0000000 -1.0000000  0.0000000 )
                  (  0.0000000  0.0000000  1.0000000 )


      isym =  8     inv. 180 deg rotation - cart. axis [1,0,0]   

 cryst.   s( 8) = (    -1          0          0      )
                  (     0          1          0      )
                  (     0          0          1      )

 cart.    s( 8) = ( -1.0000000  0.0000000  0.0000000 )
                  (  0.0000000  1.0000000  0.0000000 )
                  (  0.0000000  0.0000000  1.0000000 )


     point group D_2h (mmm) 
     there are  8 classes
     the character table:

       E     C2    C2'   C2''  i     s_v   s_v'  s_v''
A_g    1.00  1.00  1.00  1.00  1.00  1.00  1.00  1.00
B_1g   1.00  1.00 -1.00 -1.00  1.00  1.00 -1.00 -1.00
B_2g   1.00 -1.00  1.00 -1.00  1.00 -1.00  1.00 -1.00
B_3g   1.00 -1.00 -1.00  1.00  1.00 -1.00 -1.00  1.00
A_u    1.00  1.00  1.00  1.00 -1.00 -1.00 -1.00 -1.00
B_1u   1.00  1.00 -1.00 -1.00 -1.00 -1.00  1.00  1.00
B_2u   1.00 -1.00  1.00 -1.00 -1.00  1.00 -1.00  1.00
B_3u   1.00 -1.00 -1.00  1.00 -1.00  1.00  1.00 -1.00

     the symmetry operations in each class and the name of the first element:

     E        1
          identity                                               
     C2       2
          180 deg rotation - cart. axis [0,0,1]                  
     C2'      4
          180 deg rotation - cart. axis [1,0,0]                  
     C2''     3
          180 deg rotation - cart. axis [0,1,0]                  
     i        5
          inversion                                              
     s_v      6
          inv. 180 deg rotation - cart. axis [0,0,1]             
     s_v'     8
          inv. 180 deg rotation - cart. axis [1,0,0]             
     s_v''    7
          inv. 180 deg rotation - cart. axis [0,1,0]             

   Cartesian axes

     site n.     atom                  positions (alat units)
         1        Y      tau(   1) = (   0.5000000   0.5000000   1.5291325  )
         2        Ba     tau(   2) = (   0.5000000   0.5000000   0.5625067  )
         3        Ba     tau(   3) = (   0.5000000   0.5000000   2.4957584  )
         4        Cu     tau(   4) = (   0.0000000   0.0000000   0.0000000  )
         5        Cu     tau(   5) = (   0.0000000   0.0000000   1.0857147  )
         6        Cu     tau(   6) = (   0.0000000   0.0000000   1.9725504  )
         7        O      tau(   7) = (   0.5000000   0.0000000   1.1566053  )
         8        O      tau(   8) = (   0.5000000   0.0000000   1.9016598  )
         9        O      tau(   9) = (   0.0000000   0.5000000   1.1527518  )
        10        O      tau(  10) = (   0.0000000   0.5000000   1.9055132  )
        11        O      tau(  11) = (   0.0000000   0.0000000   0.4844292  )
        12        O      tau(  12) = (   0.0000000   0.0000000   2.5738359  )

   Crystallographic axes

     site n.     atom                  positions (cryst. coord.)
         1        Y      tau(   1) = (  0.5000000  0.5000000  0.5000000  )
         2        Ba     tau(   2) = (  0.5000000  0.5000000  0.1839300  )
         3        Ba     tau(   3) = (  0.5000000  0.5000000  0.8160700  )
         4        Cu     tau(   4) = (  0.0000000  0.0000000  0.0000000  )
         5        Cu     tau(   5) = (  0.0000000  0.0000000  0.3550100  )
         6        Cu     tau(   6) = (  0.0000000  0.0000000  0.6449900  )
         7        O      tau(   7) = (  0.5000000  0.0000000  0.3781900  )
         8        O      tau(   8) = (  0.5000000  0.0000000  0.6218100  )
         9        O      tau(   9) = (  0.0000000  0.5000000  0.3769300  )
        10        O      tau(  10) = (  0.0000000  0.5000000  0.6230700  )
        11        O      tau(  11) = (  0.0000000  0.0000000  0.1584000  )
        12        O      tau(  12) = (  0.0000000  0.0000000  0.8416000  )

     number of k points=     8  Methfessel-Paxton smearing, width (Ry)=  0.0100
                       cart. coord. in units 2pi/alat
        k(    1) = (   0.0000000   0.0000000   0.0000000), wk =   0.2500000
        k(    2) = (   0.0000000   0.0000000  -0.1634914), wk =   0.2500000
        k(    3) = (   0.0000000  -0.5000000   0.0000000), wk =   0.2500000
        k(    4) = (   0.0000000  -0.5000000  -0.1634914), wk =   0.2500000
        k(    5) = (  -0.5000000  -0.5000000   0.0000000), wk =   0.2500000
        k(    6) = (  -0.5000000  -0.5000000  -0.1634914), wk =   0.2500000
        k(    7) = (  -0.5000000   0.0000000   0.0000000), wk =   0.2500000
        k(    8) = (  -0.5000000   0.0000000   0.1634914), wk =   0.2500000

                       cryst. coord.
        k(    1) = (   0.0000000   0.0000000   0.0000000), wk =   0.2500000
        k(    2) = (   0.0000000   0.0000000  -0.5000000), wk =   0.2500000
        k(    3) = (   0.0000000  -0.5000000   0.0000000), wk =   0.2500000
        k(    4) = (   0.0000000  -0.5000000  -0.5000000), wk =   0.2500000
        k(    5) = (  -0.5000000  -0.5000000   0.0000000), wk =   0.2500000
        k(    6) = (  -0.5000000  -0.5000000  -0.5000000), wk =   0.2500000
        k(    7) = (  -0.5000000   0.0000000   0.0000000), wk =   0.2500000
        k(    8) = (  -0.5000000   0.0000000   0.5000000), wk =   0.2500000

     Dense  grid:   375353 G-vectors     FFT dimensions: (  64,  64, 192)

     Smooth grid:   132581 G-vectors     FFT dimensions: (  45,  45, 135)

     Dynamical RAM for                 wfc:       4.68 MB

     Dynamical RAM for     wfc (w. buffer):      42.14 MB

     Dynamical RAM for           str. fact:       5.73 MB

     Dynamical RAM for           local pot:       0.00 MB

     Dynamical RAM for          nlocal pot:      12.66 MB

     Dynamical RAM for                qrad:      32.14 MB

     Dynamical RAM for          rho,v,vnew:       8.80 MB

     Dynamical RAM for               rhoin:       2.93 MB

     Dynamical RAM for            rho*nmix:      22.91 MB

     Dynamical RAM for           G-vectors:       5.62 MB

     Dynamical RAM for          h,s,v(r/c):       1.00 MB

     Dynamical RAM for          <psi|beta>:       0.23 MB

     Dynamical RAM for                 psi:       9.37 MB

     Dynamical RAM for                hpsi:       9.37 MB

     Dynamical RAM for                spsi:       9.37 MB

     Dynamical RAM for      wfcinit/wfcrot:      13.15 MB

     Dynamical RAM for           addusdens:     512.61 MB

     Dynamical RAM for          addusforce:     527.69 MB

     Dynamical RAM for         addusstress:     542.68 MB

     Estimated static dynamical RAM per process >     124.68 MB

     Estimated max dynamical RAM per process >     690.27 MB

     Estimated total dynamical RAM >       2.70 GB

     Initial potential from superposition of free atoms

     starting charge     120.9655, renormalised to     124.0000

     negative rho (up, down):  1.934E-01 0.000E+00
     Starting wfcs are  102 randomized atomic wfcs

     total cpu time spent up to now is        2.9 secs

     Self-consistent Calculation

     iteration #  1     ecut=    90.00 Ry     beta= 0.10
     Davidson diagonalization with overlap

---- Real-time Memory Report at c_bands before calling an iterative solver
           684 MiB given to the printing process from OS
             0 MiB allocation reported by mallinfo(arena+hblkhd)
          6590 MiB available memory on the node where the printing process lives
------------------
     ethr =  1.00E-02,  avg # of iterations =  2.1

     negative rho (up, down):  1.912E-01 0.000E+00

     total cpu time spent up to now is        7.0 secs

     total energy              =   -1639.41836595 Ry
     estimated scf accuracy    <       1.91668154 Ry

     iteration #  2     ecut=    90.00 Ry     beta= 0.10
     Davidson diagonalization with overlap

---- Real-time Memory Report at c_bands before calling an iterative solver
           775 MiB given to the printing process from OS
             0 MiB allocation reported by mallinfo(arena+hblkhd)
          6561 MiB available memory on the node where the printing process lives
------------------
     ethr =  1.55E-03,  avg # of iterations =  2.0

     negative rho (up, down):  1.868E-01 0.000E+00

     total cpu time spent up to now is       11.0 secs

     total energy              =   -1639.23403226 Ry
     estimated scf accuracy    <       0.93565978 Ry

     iteration #  3     ecut=    90.00 Ry     beta= 0.10
     Davidson diagonalization with overlap

---- Real-time Memory Report at c_bands before calling an iterative solver
           779 MiB given to the printing process from OS
             0 MiB allocation reported by mallinfo(arena+hblkhd)
          6551 MiB available memory on the node where the printing process lives
------------------
     ethr =  7.55E-04,  avg # of iterations =  2.5

     negative rho (up, down):  1.841E-01 0.000E+00

     total cpu time spent up to now is       15.2 secs

     total energy              =   -1639.28760709 Ry
     estimated scf accuracy    <       0.18983343 Ry

     iteration #  4     ecut=    90.00 Ry     beta= 0.10
     Davidson diagonalization with overlap

---- Real-time Memory Report at c_bands before calling an iterative solver
           783 MiB given to the printing process from OS
             0 MiB allocation reported by mallinfo(arena+hblkhd)
          6538 MiB available memory on the node where the printing process lives
------------------
     ethr =  1.53E-04,  avg # of iterations =  5.6

     negative rho (up, down):  1.778E-01 0.000E+00

     total cpu time spent up to now is       19.4 secs

     total energy              =   -1639.25877993 Ry
     estimated scf accuracy    <       0.10049801 Ry

     iteration #  5     ecut=    90.00 Ry     beta= 0.10
     Davidson diagonalization with overlap

---- Real-time Memory Report at c_bands before calling an iterative solver
           784 MiB given to the printing process from OS
             0 MiB allocation reported by mallinfo(arena+hblkhd)
          6528 MiB available memory on the node where the printing process lives
------------------
     c_bands:  1 eigenvalues not converged
     ethr =  8.10E-05,  avg # of iterations = 11.2

     negative rho (up, down):  1.774E-01 0.000E+00

     total cpu time spent up to now is       25.0 secs

     total energy              =   -1639.27283227 Ry
     estimated scf accuracy    <       0.02623122 Ry

     iteration #  6     ecut=    90.00 Ry     beta= 0.10
     Davidson diagonalization with overlap

---- Real-time Memory Report at c_bands before calling an iterative solver
           785 MiB given to the printing process from OS
             0 MiB allocation reported by mallinfo(arena+hblkhd)
          6521 MiB available memory on the node where the printing process lives
------------------
     ethr =  2.12E-05,  avg # of iterations =  4.0

     negative rho (up, down):  1.742E-01 0.000E+00

     total cpu time spent up to now is       29.7 secs

     total energy              =   -1639.26922874 Ry
     estimated scf accuracy    <       0.01585451 Ry

     iteration #  7     ecut=    90.00 Ry     beta= 0.10
     Davidson diagonalization with overlap

---- Real-time Memory Report at c_bands before calling an iterative solver
           786 MiB given to the printing process from OS
             0 MiB allocation reported by mallinfo(arena+hblkhd)
          6516 MiB available memory on the node where the printing process lives
------------------
     ethr =  1.28E-05,  avg # of iterations =  6.2

     negative rho (up, down):  1.726E-01 0.000E+00

     total cpu time spent up to now is       34.9 secs

     total energy              =   -1639.27172399 Ry
     estimated scf accuracy    <       0.00259305 Ry

     iteration #  8     ecut=    90.00 Ry     beta= 0.10
     Davidson diagonalization with overlap

---- Real-time Memory Report at c_bands before calling an iterative solver
           787 MiB given to the printing process from OS
             0 MiB allocation reported by mallinfo(arena+hblkhd)
          6414 MiB available memory on the node where the printing process lives
------------------
     ethr =  2.09E-06,  avg # of iterations =  7.0

     negative rho (up, down):  1.726E-01 0.000E+00

     total cpu time spent up to now is       40.9 secs

     total energy              =   -1639.27174163 Ry
     estimated scf accuracy    <       0.00289613 Ry

     iteration #  9     ecut=    90.00 Ry     beta= 0.10
     Davidson diagonalization with overlap

---- Real-time Memory Report at c_bands before calling an iterative solver
           788 MiB given to the printing process from OS
             0 MiB allocation reported by mallinfo(arena+hblkhd)
          6497 MiB available memory on the node where the printing process lives
------------------
     ethr =  2.09E-06,  avg # of iterations =  4.2

     negative rho (up, down):  1.725E-01 0.000E+00

     total cpu time spent up to now is       45.9 secs

     total energy              =   -1639.27205756 Ry
     estimated scf accuracy    <       0.00055810 Ry

     iteration # 10     ecut=    90.00 Ry     beta= 0.10
     Davidson diagonalization with overlap

---- Real-time Memory Report at c_bands before calling an iterative solver
           789 MiB given to the printing process from OS
             0 MiB allocation reported by mallinfo(arena+hblkhd)
          6490 MiB available memory on the node where the printing process lives
------------------
     ethr =  4.50E-07,  avg # of iterations =  4.4

     negative rho (up, down):  1.723E-01 0.000E+00

     total cpu time spent up to now is       51.1 secs

     total energy              =   -1639.27223725 Ry
     estimated scf accuracy    <       0.00022899 Ry

     iteration # 11     ecut=    90.00 Ry     beta= 0.10
     Davidson diagonalization with overlap

---- Real-time Memory Report at c_bands before calling an iterative solver
           790 MiB given to the printing process from OS
             0 MiB allocation reported by mallinfo(arena+hblkhd)
          6487 MiB available memory on the node where the printing process lives
------------------
     ethr =  1.85E-07,  avg # of iterations =  3.4

     negative rho (up, down):  1.723E-01 0.000E+00

     total cpu time spent up to now is       55.9 secs

     total energy              =   -1639.27236380 Ry
     estimated scf accuracy    <       0.00004094 Ry

     iteration # 12     ecut=    90.00 Ry     beta= 0.10
     Davidson diagonalization with overlap

---- Real-time Memory Report at c_bands before calling an iterative solver
           790 MiB given to the printing process from OS
             0 MiB allocation reported by mallinfo(arena+hblkhd)
          6490 MiB available memory on the node where the printing process lives
------------------
     ethr =  3.30E-08,  avg # of iterations =  2.0

     negative rho (up, down):  1.722E-01 0.000E+00

     total cpu time spent up to now is       60.7 secs

     total energy              =   -1639.27244599 Ry
     estimated scf accuracy    <       0.00002344 Ry

     iteration # 13     ecut=    90.00 Ry     beta= 0.10
     Davidson diagonalization with overlap

---- Real-time Memory Report at c_bands before calling an iterative solver
           790 MiB given to the printing process from OS
             0 MiB allocation reported by mallinfo(arena+hblkhd)
          6490 MiB available memory on the node where the printing process lives
------------------
     ethr =  1.89E-08,  avg # of iterations =  3.2

     negative rho (up, down):  1.722E-01 0.000E+00

     total cpu time spent up to now is       65.6 secs

     total energy              =   -1639.27251611 Ry
     estimated scf accuracy    <       0.00000974 Ry

     iteration # 14     ecut=    90.00 Ry     beta= 0.10
     Davidson diagonalization with overlap

---- Real-time Memory Report at c_bands before calling an iterative solver
           790 MiB given to the printing process from OS
             0 MiB allocation reported by mallinfo(arena+hblkhd)
          6487 MiB available memory on the node where the printing process lives
------------------
     ethr =  7.86E-09,  avg # of iterations =  2.8

     negative rho (up, down):  1.721E-01 0.000E+00

     total cpu time spent up to now is       70.5 secs

     total energy              =   -1639.27257229 Ry
     estimated scf accuracy    <       0.00000387 Ry

     iteration # 15     ecut=    90.00 Ry     beta= 0.10
     Davidson diagonalization with overlap

---- Real-time Memory Report at c_bands before calling an iterative solver
           790 MiB given to the printing process from OS
             0 MiB allocation reported by mallinfo(arena+hblkhd)
          6489 MiB available memory on the node where the printing process lives
------------------
     ethr =  3.12E-09,  avg # of iterations =  2.0

     negative rho (up, down):  1.721E-01 0.000E+00

     total cpu time spent up to now is       75.3 secs

     total energy              =   -1639.27261568 Ry
     estimated scf accuracy    <       0.00000108 Ry

     iteration # 16     ecut=    90.00 Ry     beta= 0.10
     Davidson diagonalization with overlap

---- Real-time Memory Report at c_bands before calling an iterative solver
           790 MiB given to the printing process from OS
             0 MiB allocation reported by mallinfo(arena+hblkhd)
          6486 MiB available memory on the node where the printing process lives
------------------
     ethr =  8.71E-10,  avg # of iterations =  2.9

     negative rho (up, down):  1.721E-01 0.000E+00

     total cpu time spent up to now is       80.1 secs

     total energy              =   -1639.27265098 Ry
     estimated scf accuracy    <       0.00000016 Ry

     iteration # 17     ecut=    90.00 Ry     beta= 0.10
     Davidson diagonalization with overlap

---- Real-time Memory Report at c_bands before calling an iterative solver
           790 MiB given to the printing process from OS
             0 MiB allocation reported by mallinfo(arena+hblkhd)
          6486 MiB available memory on the node where the printing process lives
------------------
     ethr =  1.32E-10,  avg # of iterations =  3.8

     negative rho (up, down):  1.721E-01 0.000E+00

     total cpu time spent up to now is       84.9 secs

     total energy              =   -1639.27267940 Ry
     estimated scf accuracy    <       0.00000009 Ry

     iteration # 18     ecut=    90.00 Ry     beta= 0.10
     Davidson diagonalization with overlap

---- Real-time Memory Report at c_bands before calling an iterative solver
           790 MiB given to the printing process from OS
             0 MiB allocation reported by mallinfo(arena+hblkhd)
          6487 MiB available memory on the node where the printing process lives
------------------
     ethr =  7.62E-11,  avg # of iterations =  4.1

     negative rho (up, down):  1.721E-01 0.000E+00

     total cpu time spent up to now is       90.2 secs

     total energy              =   -1639.27270238 Ry
     estimated scf accuracy    <       0.00000017 Ry

     iteration # 19     ecut=    90.00 Ry     beta= 0.10
     Davidson diagonalization with overlap

---- Real-time Memory Report at c_bands before calling an iterative solver
           790 MiB given to the printing process from OS
             0 MiB allocation reported by mallinfo(arena+hblkhd)
          6486 MiB available memory on the node where the printing process lives
------------------
     ethr =  7.62E-11,  avg # of iterations =  4.0

     negative rho (up, down):  1.721E-01 0.000E+00

     total cpu time spent up to now is       95.2 secs

     total energy              =   -1639.27272098 Ry
     estimated scf accuracy    <       0.00000002 Ry

     iteration # 20     ecut=    90.00 Ry     beta= 0.10
     Davidson diagonalization with overlap

---- Real-time Memory Report at c_bands before calling an iterative solver
           790 MiB given to the printing process from OS
             0 MiB allocation reported by mallinfo(arena+hblkhd)
          6487 MiB available memory on the node where the printing process lives
------------------
     ethr =  1.42E-11,  avg # of iterations =  2.5

     negative rho (up, down):  1.721E-01 0.000E+00

     total cpu time spent up to now is      100.0 secs

     End of self-consistent calculation

          k = 0.0000 0.0000 0.0000 ( 16559 PWs)   bands (ev):

  -101.1811-101.1811-101.0848 -58.7172 -58.7172 -58.7161 -58.7161 -58.5977
   -58.4317 -58.4315 -58.2936 -58.2930 -29.8876 -15.5360 -15.5208 -10.4816
    -9.8871  -9.8838  -7.2808  -6.3032  -6.2834  -6.0669  -6.0211  -5.7592
    -1.0303  -0.7351  -0.4213  -0.4199  -0.4066  -0.4052   5.8502   6.1321
     6.1360   6.2592   6.4864   6.5015   7.2026   7.3491   7.7469   7.7472
     8.2239   8.2586   8.5073   8.5486   8.5756   8.6308   8.7030   8.7071
     8.7071   8.7248   8.8635   9.0123   9.0295   9.4421   9.4904   9.4910
     9.8197   9.8794   9.9049  10.1242  10.1575  10.3633  10.3679  13.0235
    13.6662  13.9871  14.1316  15.4505  15.8389  15.8424  15.9270  16.4362
    16.6834  17.0679

     occupation numbers 
     1.0000   1.0000   1.0000   1.0000   1.0000   1.0000   1.0000   1.0000
     1.0000   1.0000   1.0000   1.0000   1.0000   1.0000   1.0000   1.0000
     1.0000   1.0000   1.0000   1.0000   1.0000   1.0000   1.0000   1.0000
     1.0000   1.0000   1.0000   1.0000   1.0000   1.0000   1.0000   1.0000
     1.0000   1.0000   1.0000   1.0000   1.0000   1.0000   1.0000   1.0000
     1.0000   1.0000   1.0000   1.0000   1.0000   1.0000   1.0000   1.0000
     1.0000   1.0000   1.0000   1.0000   1.0000   1.0000   1.0000   1.0000
     1.0000   1.0000   1.0000   1.0000   1.0000   1.0000   1.0000  -0.0000
    -0.0000  -0.0000  -0.0000  -0.0000  -0.0000  -0.0000  -0.0000  -0.0000
    -0.0000  -0.0000

          k = 0.0000 0.0000-0.1635 ( 16578 PWs)   bands (ev):

  -101.1811-101.1811-101.0848 -58.7172 -58.7172 -58.7161 -58.7161 -58.5977
   -58.4317 -58.4315 -58.2936 -58.2930 -29.8876 -15.5370 -15.5198 -10.4818
    -9.8871  -9.8838  -7.2795  -6.3437  -6.2262  -6.0854  -6.0211  -5.7592
    -1.0000  -0.7673  -0.4228  -0.4214  -0.4051  -0.4037   5.8694   6.1320
     6.1359   6.2792   6.4862   6.5014   7.2086   7.3509   7.7466   7.7468
     7.9315   8.4864   8.5074   8.5414   8.5486   8.6577   8.6628   8.6670
     8.8484   8.8578   8.8635   8.8697   8.8715   9.6402   9.6636   9.6875
     9.7280   9.7441   9.8183   9.9479  10.1467  10.3787  10.3841  13.2788
    13.8042  13.8295  13.9445  15.4649  15.5962  15.7874  15.7886  16.4362
    16.4514  17.8070

     occupation numbers 
     1.0000   1.0000   1.0000   1.0000   1.0000   1.0000   1.0000   1.0000
     1.0000   1.0000   1.0000   1.0000   1.0000   1.0000   1.0000   1.0000
     1.0000   1.0000   1.0000   1.0000   1.0000   1.0000   1.0000   1.0000
     1.0000   1.0000   1.0000   1.0000   1.0000   1.0000   1.0000   1.0000
     1.0000   1.0000   1.0000   1.0000   1.0000   1.0000   1.0000   1.0000
     1.0000   1.0000   1.0000   1.0000   1.0000   1.0000   1.0000   1.0000
     1.0000   1.0000   1.0000   1.0000   1.0000   1.0000   1.0000   1.0000
     1.0000   1.0000   1.0000   1.0000   1.0000   1.0000   1.0000  -0.0000
    -0.0000  -0.0000  -0.0000  -0.0000  -0.0000  -0.0000  -0.0000  -0.0000
    -0.0000  -0.0000

          k = 0.0000-0.5000 0.0000 ( 16554 PWs)   bands (ev):

  -101.1811-101.1811-101.0848 -58.7173 -58.7173 -58.7161 -58.7160 -58.5977
   -58.4317 -58.4317 -58.2936 -58.2930 -29.8724 -15.4015 -15.3886 -10.5137
   -10.2080  -9.8663  -6.7440  -6.7057  -6.4618  -6.3347  -5.8926  -5.8216
    -0.9263  -0.6909  -0.4428  -0.3816  -0.1739  -0.1544   5.1012   5.3108
     5.8220   6.4274   6.6850   6.6975   6.7952   7.0452   7.0480   7.2281
     7.3045   7.5035   7.7171   7.7840   7.8917   7.9326   8.2274   8.4483
     8.6846   8.7762   9.0604   9.1025   9.3792   9.7470   9.8145   9.8465
     9.8661  10.0107  10.1660  10.3317  10.4959  10.5737  11.0998  12.2497
    14.3713  15.7584  16.2121  16.3705  16.7217  16.8013  17.0642  17.1974
    17.2131  17.6466

     occupation numbers 
     1.0000   1.0000   1.0000   1.0000   1.0000   1.0000   1.0000   1.0000
     1.0000   1.0000   1.0000   1.0000   1.0000   1.0000   1.0000   1.0000
     1.0000   1.0000   1.0000   1.0000   1.0000   1.0000   1.0000   1.0000
     1.0000   1.0000   1.0000   1.0000   1.0000   1.0000   1.0000   1.0000
     1.0000   1.0000   1.0000   1.0000   1.0000   1.0000   1.0000   1.0000
     1.0000   1.0000   1.0000   1.0000   1.0000   1.0000   1.0000   1.0000
     1.0000   1.0000   1.0000   1.0000   1.0000   1.0000   1.0000   1.0000
     1.0000   1.0000   1.0000   1.0000   1.0024   1.0161  -0.0056  -0.0000
    -0.0000  -0.0000  -0.0000  -0.0000  -0.0000  -0.0000  -0.0000  -0.0000
    -0.0000  -0.0000

          k = 0.0000-0.5000-0.1635 ( 16552 PWs)   bands (ev):

  -101.1811-101.1811-101.0848 -58.7173 -58.7173 -58.7161 -58.7160 -58.5977
   -58.4317 -58.4317 -58.2936 -58.2930 -29.8724 -15.4022 -15.3879 -10.5137
   -10.2081  -9.8663  -6.8181  -6.5598  -6.4610  -6.4221  -5.8770  -5.8225
    -0.9083  -0.7103  -0.4438  -0.3807  -0.1754  -0.1529   5.1586   5.2476
     5.8229   6.3809   6.6797   6.6952   7.0256   7.0644   7.0942   7.1754
     7.3076   7.3313   7.5675   7.7271   7.8183   8.0938   8.3036   8.5215
     8.6475   8.7758   9.0961   9.1053   9.3871   9.7279   9.8662   9.8947
     9.9489   9.9709  10.0079  10.3314  10.4891  10.5782  11.0349  12.2842
    14.4190  15.7052  16.2126  16.3622  16.4799  16.7254  17.0773  17.1050
    17.2081  17.8682

     occupation numbers 
     1.0000   1.0000   1.0000   1.0000   1.0000   1.0000   1.0000   1.0000
     1.0000   1.0000   1.0000   1.0000   1.0000   1.0000   1.0000   1.0000
     1.0000   1.0000   1.0000   1.0000   1.0000   1.0000   1.0000   1.0000
     1.0000   1.0000   1.0000   1.0000   1.0000   1.0000   1.0000   1.0000
     1.0000   1.0000   1.0000   1.0000   1.0000   1.0000   1.0000   1.0000
     1.0000   1.0000   1.0000   1.0000   1.0000   1.0000   1.0000   1.0000
     1.0000   1.0000   1.0000   1.0000   1.0000   1.0000   1.0000   1.0000
     1.0000   1.0000   1.0000   1.0000   1.0019   1.0174  -0.0216  -0.0000
    -0.0000  -0.0000  -0.0000  -0.0000  -0.0000  -0.0000  -0.0000  -0.0000
    -0.0000  -0.0000

          k =-0.5000-0.5000 0.0000 ( 16592 PWs)   bands (ev):

  -101.1811-101.1811-101.0848 -58.7173 -58.7173 -58.7162 -58.7162 -58.5977
   -58.4319 -58.4317 -58.2936 -58.2930 -29.8578 -15.3012 -15.2887 -10.4595
   -10.4446  -9.9727  -6.4139  -6.2909  -6.2834  -6.2046  -5.7349  -5.7082
    -1.2959  -1.2913  -1.2681  -1.2638  -0.8876  -0.6639   3.9198   4.5419
     5.5791   5.8627   5.9084   5.9447   6.3724   7.1908   7.2032   7.2580
     7.4930   7.5247   7.8114   7.8123   8.6702   8.7760   8.9370   8.9386
     8.9836   9.6912   9.7603   9.9148  10.0896  10.0994  10.1277  10.1907
    10.1973  10.2366  10.2690  10.4826  10.4851  12.7995  12.8063  13.2994
    13.3727  14.0846  14.9035  15.9973  16.0143  16.1496  16.6842  16.9539
    18.1444  18.3914

     occupation numbers 
     1.0000   1.0000   1.0000   1.0000   1.0000   1.0000   1.0000   1.0000
     1.0000   1.0000   1.0000   1.0000   1.0000   1.0000   1.0000   1.0000
     1.0000   1.0000   1.0000   1.0000   1.0000   1.0000   1.0000   1.0000
     1.0000   1.0000   1.0000   1.0000   1.0000   1.0000   1.0000   1.0000
     1.0000   1.0000   1.0000   1.0000   1.0000   1.0000   1.0000   1.0000
     1.0000   1.0000   1.0000   1.0000   1.0000   1.0000   1.0000   1.0000
     1.0000   1.0000   1.0000   1.0000   1.0000   1.0000   1.0000   1.0000
     1.0000   1.0000   1.0000   1.0016   1.0017  -0.0000  -0.0000  -0.0000
    -0.0000  -0.0000  -0.0000  -0.0000  -0.0000  -0.0000  -0.0000  -0.0000
    -0.0000  -0.0000

          k =-0.5000-0.5000-0.1635 ( 16640 PWs)   bands (ev):

  -101.1811-101.1811-101.0848 -58.7173 -58.7173 -58.7162 -58.7162 -58.5977
   -58.4319 -58.4317 -58.2936 -58.2930 -29.8578 -15.3017 -15.2882 -10.4595
   -10.4446  -9.9728  -6.4138  -6.2910  -6.2835  -6.2047  -5.7349  -5.7081
    -1.2990  -1.2948  -1.2649  -1.2604  -0.8602  -0.6938   3.9451   4.4988
     5.6114   5.8627   5.9084   5.9621   6.3410   7.1943   7.2064   7.2372
     7.4959   7.5292   7.8045   7.8048   8.6710   8.9416   8.9427   8.9836
     9.0951   9.3649   9.6912   9.9186  10.0116  10.0381  10.1249  10.2366
    10.2603  10.2886  10.2972  10.4617  10.4649  12.8197  12.8251  13.2999
    13.3726  14.5051  14.9949  15.3873  16.0856  16.1120  16.5521  17.1697
    17.4423  17.4537

     occupation numbers 
     1.0000   1.0000   1.0000   1.0000   1.0000   1.0000   1.0000   1.0000
     1.0000   1.0000   1.0000   1.0000   1.0000   1.0000   1.0000   1.0000
     1.0000   1.0000   1.0000   1.0000   1.0000   1.0000   1.0000   1.0000
     1.0000   1.0000   1.0000   1.0000   1.0000   1.0000   1.0000   1.0000
     1.0000   1.0000   1.0000   1.0000   1.0000   1.0000   1.0000   1.0000
     1.0000   1.0000   1.0000   1.0000   1.0000   1.0000   1.0000   1.0000
     1.0000   1.0000   1.0000   1.0000   1.0000   1.0000   1.0000   1.0000
     1.0000   1.0000   1.0000   1.0008   1.0009  -0.0000  -0.0000  -0.0000
    -0.0000  -0.0000  -0.0000  -0.0000  -0.0000  -0.0000  -0.0000  -0.0000
    -0.0000  -0.0000

          k =-0.5000 0.0000 0.0000 ( 16554 PWs)   bands (ev):

  -101.1811-101.1811-101.0848 -58.7172 -58.7172 -58.7162 -58.7162 -58.5977
   -58.4319 -58.4315 -58.2936 -58.2930 -29.8727 -15.4014 -15.3885 -10.4988
   -10.2128  -9.8632  -6.7469  -6.7153  -6.4666  -6.3349  -5.9191  -5.8016
    -0.9308  -0.6951  -0.4389  -0.3779  -0.1753  -0.1557   5.1177   5.3356
     5.8201   6.4284   6.6910   6.7106   6.8013   7.0406   7.0434   7.2451
     7.3165   7.5318   7.7166   7.7890   7.8956   7.9517   8.2364   8.4499
     8.6730   8.7762   9.0582   9.0780   9.3503   9.7394   9.8141   9.8201
     9.8479  10.0050  10.1408  10.3290  10.4920  10.5488  11.0762  12.2535
    14.3702  15.7897  16.1751  16.3845  16.7109  16.7971  17.1017  17.2028
    17.2044  17.7037

     occupation numbers 
     1.0000   1.0000   1.0000   1.0000   1.0000   1.0000   1.0000   1.0000
     1.0000   1.0000   1.0000   1.0000   1.0000   1.0000   1.0000   1.0000
     1.0000   1.0000   1.0000   1.0000   1.0000   1.0000   1.0000   1.0000
     1.0000   1.0000   1.0000   1.0000   1.0000   1.0000   1.0000   1.0000
     1.0000   1.0000   1.0000   1.0000   1.0000   1.0000   1.0000   1.0000
     1.0000   1.0000   1.0000   1.0000   1.0000   1.0000   1.0000   1.0000
     1.0000   1.0000   1.0000   1.0000   1.0000   1.0000   1.0000   1.0000
     1.0000   1.0000   1.0000   1.0000   1.0021   1.0096  -0.0098  -0.0000
    -0.0000  -0.0000  -0.0000  -0.0000  -0.0000  -0.0000  -0.0000  -0.0000
    -0.0000  -0.0000

          k =-0.5000 0.0000 0.1635 ( 16552 PWs)   bands (ev):

  -101.1811-101.1811-101.0848 -58.7172 -58.7172 -58.7162 -58.7162 -58.5977
   -58.4319 -58.4315 -58.2936 -58.2930 -29.8727 -15.4021 -15.3878 -10.4988
   -10.2129  -9.8632  -6.8246  -6.5643  -6.4658  -6.4256  -5.9017  -5.8025
    -0.9123  -0.7150  -0.4401  -0.3769  -0.1768  -0.1543   5.1748   5.2715
     5.8216   6.3833   6.6888   6.7035   7.0241   7.0771   7.0973   7.1837
     7.3195   7.3243   7.5967   7.7299   7.8358   8.0958   8.3146   8.5259
     8.6360   8.7757   9.0710   9.1048   9.3580   9.7125   9.8480   9.8815
     9.9379   9.9499  10.0027  10.3287  10.4856  10.5534  11.0099  12.2871
    14.4173  15.7421  16.1755  16.3790  16.4745  16.7196  17.1020  17.1082
    17.2156  17.9436

     occupation numbers 
     1.0000   1.0000   1.0000   1.0000   1.0000   1.0000   1.0000   1.0000
     1.0000   1.0000   1.0000   1.0000   1.0000   1.0000   1.0000   1.0000
     1.0000   1.0000   1.0000   1.0000   1.0000   1.0000   1.0000   1.0000
     1.0000   1.0000   1.0000   1.0000   1.0000   1.0000   1.0000   1.0000
     1.0000   1.0000   1.0000   1.0000   1.0000   1.0000   1.0000   1.0000
     1.0000   1.0000   1.0000   1.0000   1.0000   1.0000   1.0000   1.0000
     1.0000   1.0000   1.0000   1.0000   1.0000   1.0000   1.0000   1.0000
     1.0000   1.0000   1.0000   1.0000   1.0017   1.0106  -0.0299  -0.0000
    -0.0000  -0.0000  -0.0000  -0.0000  -0.0000  -0.0000  -0.0000  -0.0000
    -0.0000  -0.0000

     the Fermi energy is    10.8130 ev

!    total energy              =   -1639.27279975 Ry
     estimated scf accuracy    <          4.0E-09 Ry
     smearing contrib. (-TS)   =       0.00070194 Ry
     internal energy E=F+TS    =   -1639.27350168 Ry

     The total energy is F=E-TS. E is the sum of the following terms:
     one-electron contribution =   -1343.73436932 Ry
     hartree contribution      =     741.90837095 Ry
     xc contribution           =    -243.67199505 Ry
     ewald contribution        =    -793.77550827 Ry

     convergence has been achieved in  20 iterations

     negative rho (up, down):  1.721E-01 0.000E+00

     Forces acting on atoms (cartesian axes, Ry/au):

     atom    1 type  1   force =     0.00000000    0.00000000    0.00000000
     atom    2 type  2   force =     0.00000000    0.00000000    0.04784306
     atom    3 type  2   force =     0.00000000    0.00000000   -0.04784306
     atom    4 type  3   force =     0.00000000    0.00000000    0.00000000
     atom    5 type  3   force =     0.00000000    0.00000000    0.04318892
     atom    6 type  3   force =     0.00000000    0.00000000   -0.04318892
     atom    7 type  4   force =     0.00000000    0.00000000   -0.02402845
     atom    8 type  4   force =     0.00000000    0.00000000    0.02402845
     atom    9 type  4   force =     0.00000000    0.00000000   -0.02023470
     atom   10 type  4   force =     0.00000000    0.00000000    0.02023470
     atom   11 type  4   force =     0.00000000    0.00000000   -0.05471320
     atom   12 type  4   force =     0.00000000    0.00000000    0.05471320
     The non-local contrib.  to forces
     atom    1 type  1   force =     0.00000000    0.00000000    0.00000000
     atom    2 type  2   force =     0.00000000    0.00000000   -0.06118860
     atom    3 type  2   force =     0.00000000    0.00000000    0.06118860
     atom    4 type  3   force =     0.00000000    0.00000000    0.00000000
     atom    5 type  3   force =     0.00000000    0.00000000   -0.20556977
     atom    6 type  3   force =     0.00000000    0.00000000    0.20556977
     atom    7 type  4   force =     0.00000000    0.00000000   -0.00340300
     atom    8 type  4   force =     0.00000000    0.00000000    0.00340300
     atom    9 type  4   force =     0.00000000    0.00000000    0.01183345
     atom   10 type  4   force =     0.00000000    0.00000000   -0.01183345
     atom   11 type  4   force =     0.00000000    0.00000000   -0.54206335
     atom   12 type  4   force =     0.00000000    0.00000000    0.54206335
     The ionic contribution  to forces
     atom    1 type  1   force =     0.00000000    0.00000000   -0.00000000
     atom    2 type  2   force =    -0.00000000   -0.00000000  -21.39166747
     atom    3 type  2   force =     0.00000000    0.00000000   21.39166747
     atom    4 type  3   force =     0.00000000    0.00000000   -0.00000000
     atom    5 type  3   force =    -0.00000000   -0.00000000  -35.83308039
     atom    6 type  3   force =    -0.00000000    0.00000000   35.83308039
     atom    7 type  4   force =     0.00000000    0.00000000   -8.53307419
     atom    8 type  4   force =     0.00000000    0.00000000    8.53307419
     atom    9 type  4   force =    -0.00000000    0.00000000   -8.67242700
     atom   10 type  4   force =    -0.00000000   -0.00000000    8.67242700
     atom   11 type  4   force =     0.00000000   -0.00000000   -4.75285239
     atom   12 type  4   force =     0.00000000   -0.00000000    4.75285239
     The local contribution  to forces
     atom    1 type  1   force =     0.00000000    0.00000000    0.00000000
     atom    2 type  2   force =     0.00000000   -0.00000000   21.50036471
     atom    3 type  2   force =     0.00000000    0.00000000  -21.50036471
     atom    4 type  3   force =    -0.00000000   -0.00000000   -0.00000000
     atom    5 type  3   force =    -0.00000000    0.00000000   36.08150869
     atom    6 type  3   force =    -0.00000000    0.00000000  -36.08150869
     atom    7 type  4   force =    -0.00000000   -0.00000000    8.51201229
     atom    8 type  4   force =     0.00000000    0.00000000   -8.51201229
     atom    9 type  4   force =    -0.00000000    0.00000000    8.64007123
     atom   10 type  4   force =    -0.00000000    0.00000000   -8.64007123
     atom   11 type  4   force =     0.00000000   -0.00000000    5.23661379
     atom   12 type  4   force =    -0.00000000   -0.00000000   -5.23661379
     The core correction contribution to forces
     atom    1 type  1   force =    -0.00000000   -0.00000000    0.00000000
     atom    2 type  2   force =    -0.00000000    0.00000000    0.00026967
     atom    3 type  2   force =    -0.00000000   -0.00000000   -0.00026967
     atom    4 type  3   force =    -0.00000000   -0.00000000   -0.00000000
     atom    5 type  3   force =    -0.00000000    0.00000000    0.00038438
     atom    6 type  3   force =    -0.00000000   -0.00000000   -0.00038438
     atom    7 type  4   force =    -0.00000000   -0.00000000    0.00048554
     atom    8 type  4   force =     0.00000000   -0.00000000   -0.00048554
     atom    9 type  4   force =    -0.00000000    0.00000000    0.00034055
     atom   10 type  4   force =    -0.00000000    0.00000000   -0.00034055
     atom   11 type  4   force =    -0.00000000    0.00000000    0.00356698
     atom   12 type  4   force =    -0.00000000    0.00000000   -0.00356698
     The Hubbard contrib.    to forces
     atom    1 type  1   force =     0.00000000    0.00000000    0.00000000
     atom    2 type  2   force =     0.00000000    0.00000000    0.00000000
     atom    3 type  2   force =     0.00000000    0.00000000    0.00000000
     atom    4 type  3   force =     0.00000000    0.00000000    0.00000000
     atom    5 type  3   force =     0.00000000    0.00000000    0.00000000
     atom    6 type  3   force =     0.00000000    0.00000000    0.00000000
     atom    7 type  4   force =     0.00000000    0.00000000    0.00000000
     atom    8 type  4   force =     0.00000000    0.00000000    0.00000000
     atom    9 type  4   force =     0.00000000    0.00000000    0.00000000
     atom   10 type  4   force =     0.00000000    0.00000000    0.00000000
     atom   11 type  4   force =     0.00000000    0.00000000    0.00000000
     atom   12 type  4   force =     0.00000000    0.00000000    0.00000000
     The SCF correction term to forces
     atom    1 type  1   force =     0.00000000   -0.00000000   -0.00000000
     atom    2 type  2   force =     0.00000000    0.00000000    0.00006475
     atom    3 type  2   force =     0.00000000   -0.00000000   -0.00006475
     atom    4 type  3   force =    -0.00000000    0.00000000   -0.00000000
     atom    5 type  3   force =    -0.00000000    0.00000000   -0.00005400
     atom    6 type  3   force =    -0.00000000    0.00000000    0.00005400
     atom    7 type  4   force =     0.00000000    0.00000000   -0.00004909
     atom    8 type  4   force =     0.00000000   -0.00000000    0.00004909
     atom    9 type  4   force =     0.00000000   -0.00000000   -0.00005294
     atom   10 type  4   force =     0.00000000   -0.00000000    0.00005294
     atom   11 type  4   force =    -0.00000000   -0.00000000    0.00002177
     atom   12 type  4   force =    -0.00000000    0.00000000   -0.00002177

     Total force =     0.127551     Total SCF correction =     0.000160


     Computing stress (Cartesian axis) and pressure


     negative rho (up, down):  1.721E-01 0.000E+00
          total   stress  (Ry/bohr**3)                   (kbar)     P=       57.00
   0.00056249   0.00000000   0.00000000           82.74        0.00        0.00
   0.00000000   0.00057558   0.00000000            0.00       84.67        0.00
   0.00000000   0.00000000   0.00002433            0.00        0.00        3.58

     kinetic stress (kbar)  22297.04      0.00      0.00
                                0.00  22297.58      0.00
                                0.00      0.00  22256.81

     local   stress (kbar) -37657.29      0.00      0.00
                                0.00 -37877.26      0.00
                                0.00      0.00   6691.53

     nonloc. stress (kbar)  11077.90      0.00      0.00
                                0.00  11077.84      0.00
                                0.00      0.00  11214.20

     hartree stress (kbar)  38695.88     -0.00      0.00
                               -0.00  38776.77     -0.00
                                0.00     -0.00  17372.21

     exc-cor stress (kbar)   -250.46     -0.00     -0.00
                               -0.00   -250.22      0.00
                               -0.00      0.00   -255.15

     corecor stress (kbar)  -7940.25      0.00      0.00
                                0.00  -7940.27     -0.00
                                0.00     -0.00  -7940.36

     ewald   stress (kbar) -26140.07     -0.00      0.00
                               -0.00 -25999.77      0.00
                                0.00      0.00 -49335.66

     hubbard stress (kbar)      0.00      0.00      0.00
                                0.00      0.00      0.00
                                0.00      0.00      0.00

     DFT-D   stress (kbar)      0.00      0.00      0.00
                                0.00      0.00      0.00
                                0.00      0.00      0.00

     XDM     stress (kbar)      0.00      0.00      0.00
                                0.00      0.00      0.00
                                0.00      0.00      0.00

     dft-nl  stress (kbar)      0.00      0.00      0.00
                                0.00      0.00      0.00
                                0.00      0.00      0.00

     TS-vdW  stress (kbar)      0.00      0.00      0.00
                                0.00      0.00      0.00
                                0.00      0.00      0.00

     MDB     stress (kbar)      0.00      0.00      0.00
                                0.00      0.00      0.00
                                0.00      0.00      0.00

     3D-RISM stress (kbar)      0.00      0.00      0.00
                                0.00      0.00      0.00
                                0.00      0.00      0.00


     BFGS Geometry Optimization
     Energy error            =      0.0E+00 Ry
     Gradient error          =      5.5E-02 Ry/Bohr
     Cell gradient error     =      8.5E+01 kbar

     number of scf cycles    =   1
     number of bfgs steps    =   0

     enthalpy           new  =   -1639.2727997466 Ry

     new trust radius        =       0.0976238059 bohr
     new conv_thr            =       0.0000000100 Ry

     new unit-cell volume =   1184.39755 a.u.^3 (   175.50961 Ang^3 )
     density =      6.15162 g/cm^3

CELL_PARAMETERS (alat=  7.21932071)
   1.014062132   0.000000000   0.000000000
   0.000000000   1.014389433   0.000000000
   0.000000000   0.000000000   3.060125321

ATOMIC_POSITIONS (crystal)
Y                0.5000000000        0.5000000000        0.5000000000
Ba               0.5000000000        0.5000000000        0.1860969432
Ba               0.5000000000        0.5000000000        0.8139030568
Cu               0.0000000000        0.0000000000        0.0000000000
Cu               0.0000000000        0.0000000000        0.3569661441
Cu               0.0000000000        0.0000000000        0.6430338559
O                0.5000000000        0.0000000000        0.3771016857
O                0.5000000000        0.0000000000        0.6228983143
O                0.0000000000        0.5000000000        0.3760135151
O                0.0000000000        0.5000000000        0.6239864849
O                0.0000000000        0.0000000000        0.1559218894
O                0.0000000000        0.0000000000        0.8440781106



     Writing config-only to output data dir ./YBCO.vc-relax/YBCO.vc-relax.save/
     NEW-OLD atomic charge density approx. for the potential

     negative rho (up, down):  1.726E-01 0.000E+00

     total cpu time spent up to now is      116.4 secs

     Self-consistent Calculation

     iteration #  1     ecut=    90.00 Ry     beta= 0.10
     Davidson diagonalization with overlap

---- Real-time Memory Report at c_bands before calling an iterative solver
           948 MiB given to the printing process from OS
             0 MiB allocation reported by mallinfo(arena+hblkhd)
          6481 MiB available memory on the node where the printing process lives
------------------
     c_bands:  1 eigenvalues not converged
     ethr =  1.00E-06,  avg # of iterations = 13.4

     negative rho (up, down):  1.726E-01 0.000E+00

     total cpu time spent up to now is      127.0 secs

     total energy              =   -1639.28958789 Ry
     estimated scf accuracy    <       0.00650942 Ry

     iteration #  2     ecut=    90.00 Ry     beta= 0.10
     Davidson diagonalization with overlap

---- Real-time Memory Report at c_bands before calling an iterative solver
           948 MiB given to the printing process from OS
             0 MiB allocation reported by mallinfo(arena+hblkhd)
          6470 MiB available memory on the node where the printing process lives
------------------
     ethr =  5.25E-06,  avg # of iterations =  1.0

     negative rho (up, down):  1.727E-01 0.000E+00

     total cpu time spent up to now is      131.2 secs

     total energy              =   -1639.29077308 Ry
     estimated scf accuracy    <       0.00316944 Ry

     iteration #  3     ecut=    90.00 Ry     beta= 0.10
     Davidson diagonalization with overlap

---- Real-time Memory Report at c_bands before calling an iterative solver
           948 MiB given to the printing process from OS
             0 MiB allocation reported by mallinfo(arena+hblkhd)
          6440 MiB available memory on the node where the printing process lives
------------------
     ethr =  2.56E-06,  avg # of iterations =  2.0

     negative rho (up, down):  1.727E-01 0.000E+00

     total cpu time spent up to now is      135.9 secs

     total energy              =   -1639.29210740 Ry
     estimated scf accuracy    <       0.00190364 Ry

     iteration #  4     ecut=    90.00 Ry     beta= 0.10
     Davidson diagonalization with overlap

---- Real-time Memory Report at c_bands before calling an iterative solver
           948 MiB given to the printing process from OS
             0 MiB allocation reported by mallinfo(arena+hblkhd)
          6433 MiB available memory on the node where the printing process lives
------------------
     ethr =  1.54E-06,  avg # of iterations =  1.0

     negative rho (up, down):  1.728E-01 0.000E+00

     total cpu time spent up to now is      140.1 secs

     total energy              =   -1639.29302960 Ry
     estimated scf accuracy    <       0.00079206 Ry

     iteration #  5     ecut=    90.00 Ry     beta= 0.10
     Davidson diagonalization with overlap

---- Real-time Memory Report at c_bands before calling an iterative solver
           948 MiB given to the printing process from OS
             0 MiB allocation reported by mallinfo(arena+hblkhd)
          6429 MiB available memory on the node where the printing process lives
------------------
     ethr =  6.39E-07,  avg # of iterations =  2.0

     negative rho (up, down):  1.728E-01 0.000E+00

     total cpu time spent up to now is      144.7 secs

     total energy              =   -1639.29401442 Ry
     estimated scf accuracy    <       0.00054174 Ry

     iteration #  6     ecut=    90.00 Ry     beta= 0.10
     Davidson diagonalization with overlap

---- Real-time Memory Report at c_bands before calling an iterative solver
           948 MiB given to the printing process from OS
             0 MiB allocation reported by mallinfo(arena+hblkhd)
          6426 MiB available memory on the node where the printing process lives
------------------
     ethr =  4.37E-07,  avg # of iterations =  1.6

     negative rho (up, down):  1.728E-01 0.000E+00

     total cpu time spent up to now is      149.1 secs

     total energy              =   -1639.29481535 Ry
     estimated scf accuracy    <       0.00011691 Ry

     iteration #  7     ecut=    90.00 Ry     beta= 0.10
     Davidson diagonalization with overlap

---- Real-time Memory Report at c_bands before calling an iterative solver
           948 MiB given to the printing process from OS
             0 MiB allocation reported by mallinfo(arena+hblkhd)
          6420 MiB available memory on the node where the printing process lives
------------------
     ethr =  9.43E-08,  avg # of iterations =  3.8

     negative rho (up, down):  1.728E-01 0.000E+00

     total cpu time spent up to now is      154.0 secs

     total energy              =   -1639.29546274 Ry
     estimated scf accuracy    <       0.00038853 Ry

     iteration #  8     ecut=    90.00 Ry     beta= 0.10
     Davidson diagonalization with overlap

---- Real-time Memory Report at c_bands before calling an iterative solver
           948 MiB given to the printing process from OS
             0 MiB allocation reported by mallinfo(arena+hblkhd)
          6417 MiB available memory on the node where the printing process lives
------------------
     ethr =  9.43E-08,  avg # of iterations =  2.0

     negative rho (up, down):  1.728E-01 0.000E+00

     total cpu time spent up to now is      158.6 secs

     total energy              =   -1639.29599557 Ry
     estimated scf accuracy    <       0.00002429 Ry

     iteration #  9     ecut=    90.00 Ry     beta= 0.10
     Davidson diagonalization with overlap

---- Real-time Memory Report at c_bands before calling an iterative solver
           948 MiB given to the printing process from OS
             0 MiB allocation reported by mallinfo(arena+hblkhd)
          6411 MiB available memory on the node where the printing process lives
------------------
     ethr =  1.96E-08,  avg # of iterations =  4.0

     negative rho (up, down):  1.728E-01 0.000E+00

     total cpu time spent up to now is      163.4 secs

     total energy              =   -1639.29642606 Ry
     estimated scf accuracy    <       0.00002982 Ry

     iteration # 10     ecut=    90.00 Ry     beta= 0.10
     Davidson diagonalization with overlap

---- Real-time Memory Report at c_bands before calling an iterative solver
           948 MiB given to the printing process from OS
             0 MiB allocation reported by mallinfo(arena+hblkhd)
          6411 MiB available memory on the node where the printing process lives
------------------
     ethr =  1.96E-08,  avg # of iterations =  1.4

     negative rho (up, down):  1.728E-01 0.000E+00

     total cpu time spent up to now is      167.7 secs

     total energy              =   -1639.29676828 Ry
     estimated scf accuracy    <       0.00001379 Ry

     iteration # 11     ecut=    90.00 Ry     beta= 0.10
     Davidson diagonalization with overlap

---- Real-time Memory Report at c_bands before calling an iterative solver
           948 MiB given to the printing process from OS
             0 MiB allocation reported by mallinfo(arena+hblkhd)
          6405 MiB available memory on the node where the printing process lives
------------------
     ethr =  1.11E-08,  avg # of iterations =  3.2

     negative rho (up, down):  1.728E-01 0.000E+00

     total cpu time spent up to now is      172.4 secs

     total energy              =   -1639.29704761 Ry
     estimated scf accuracy    <       0.00000977 Ry

     iteration # 12     ecut=    90.00 Ry     beta= 0.10
     Davidson diagonalization with overlap

---- Real-time Memory Report at c_bands before calling an iterative solver
           948 MiB given to the printing process from OS
             0 MiB allocation reported by mallinfo(arena+hblkhd)
          6406 MiB available memory on the node where the printing process lives
------------------
     ethr =  7.88E-09,  avg # of iterations =  2.0

     negative rho (up, down):  1.728E-01 0.000E+00

     total cpu time spent up to now is      177.0 secs

     total energy              =   -1639.29727102 Ry
     estimated scf accuracy    <       0.00000203 Ry

     iteration # 13     ecut=    90.00 Ry     beta= 0.10
     Davidson diagonalization with overlap

---- Real-time Memory Report at c_bands before calling an iterative solver
           948 MiB given to the printing process from OS
             0 MiB allocation reported by mallinfo(arena+hblkhd)
          6405 MiB available memory on the node where the printing process lives
------------------
     ethr =  1.64E-09,  avg # of iterations =  3.9

     negative rho (up, down):  1.728E-01 0.000E+00

     total cpu time spent up to now is      181.9 secs

     total energy              =   -1639.29745040 Ry
     estimated scf accuracy    <       0.00000057 Ry

     iteration # 14     ecut=    90.00 Ry     beta= 0.10
     Davidson diagonalization with overlap

---- Real-time Memory Report at c_bands before calling an iterative solver
           948 MiB given to the printing process from OS
             0 MiB allocation reported by mallinfo(arena+hblkhd)
          6405 MiB available memory on the node where the printing process lives
------------------
     ethr =  4.59E-10,  avg # of iterations =  2.4

     negative rho (up, down):  1.728E-01 0.000E+00

     total cpu time spent up to now is      186.5 secs

     total energy              =   -1639.29759467 Ry
     estimated scf accuracy    <       0.00000030 Ry

     iteration # 15     ecut=    90.00 Ry     beta= 0.10
     Davidson diagonalization with overlap

---- Real-time Memory Report at c_bands before calling an iterative solver
           948 MiB given to the printing process from OS
             0 MiB allocation reported by mallinfo(arena+hblkhd)
          6406 MiB available memory on the node where the printing process lives
------------------
     ethr =  2.42E-10,  avg # of iterations =  2.4

     negative rho (up, down):  1.728E-01 0.000E+00

     total cpu time spent up to now is      191.2 secs

     total energy              =   -1639.29770993 Ry
     estimated scf accuracy    <       0.00000017 Ry

     iteration # 16     ecut=    90.00 Ry     beta= 0.10
     Davidson diagonalization with overlap

---- Real-time Memory Report at c_bands before calling an iterative solver
           948 MiB given to the printing process from OS
             0 MiB allocation reported by mallinfo(arena+hblkhd)
          6407 MiB available memory on the node where the printing process lives
------------------
     ethr =  1.37E-10,  avg # of iterations =  2.2

     negative rho (up, down):  1.728E-01 0.000E+00

     total cpu time spent up to now is      196.0 secs

     total energy              =   -1639.29780401 Ry
     estimated scf accuracy    <       0.00000053 Ry

     iteration # 17     ecut=    90.00 Ry     beta= 0.10
     Davidson diagonalization with overlap

---- Real-time Memory Report at c_bands before calling an iterative solver
           948 MiB given to the printing process from OS
             0 MiB allocation reported by mallinfo(arena+hblkhd)
          6406 MiB available memory on the node where the printing process lives
------------------
     ethr =  1.37E-10,  avg # of iterations =  4.0

     negative rho (up, down):  1.728E-01 0.000E+00

     total cpu time spent up to now is      201.0 secs

     total energy              =   -1639.29787670 Ry
     estimated scf accuracy    <       0.00000008 Ry

     iteration # 18     ecut=    90.00 Ry     beta= 0.10
     Davidson diagonalization with overlap

---- Real-time Memory Report at c_bands before calling an iterative solver
           948 MiB given to the printing process from OS
             0 MiB allocation reported by mallinfo(arena+hblkhd)
          6405 MiB available memory on the node where the printing process lives
------------------
     ethr =  6.09E-11,  avg # of iterations =  4.2

     negative rho (up, down):  1.728E-01 0.000E+00

     total cpu time spent up to now is      206.1 secs

     total energy              =   -1639.29793674 Ry
     estimated scf accuracy    <       0.00000021 Ry

     iteration # 19     ecut=    90.00 Ry     beta= 0.10
     Davidson diagonalization with overlap

---- Real-time Memory Report at c_bands before calling an iterative solver
           948 MiB given to the printing process from OS
             0 MiB allocation reported by mallinfo(arena+hblkhd)
          6404 MiB available memory on the node where the printing process lives
------------------
     ethr =  6.09E-11,  avg # of iterations =  3.4

     negative rho (up, down):  1.728E-01 0.000E+00

     total cpu time spent up to now is      211.1 secs

     total energy              =   -1639.29798451 Ry
     estimated scf accuracy    <       0.00000006 Ry

     iteration # 20     ecut=    90.00 Ry     beta= 0.10
     Davidson diagonalization with overlap

---- Real-time Memory Report at c_bands before calling an iterative solver
           948 MiB given to the printing process from OS
             0 MiB allocation reported by mallinfo(arena+hblkhd)
          6405 MiB available memory on the node where the printing process lives
------------------
     ethr =  5.16E-11,  avg # of iterations =  2.1

     negative rho (up, down):  1.728E-01 0.000E+00

     total cpu time spent up to now is      215.6 secs

     total energy              =   -1639.29802298 Ry
     estimated scf accuracy    <       0.00000010 Ry

     iteration # 21     ecut=    90.00 Ry     beta= 0.10
     Davidson diagonalization with overlap

---- Real-time Memory Report at c_bands before calling an iterative solver
           948 MiB given to the printing process from OS
             0 MiB allocation reported by mallinfo(arena+hblkhd)
          6405 MiB available memory on the node where the printing process lives
------------------
     ethr =  5.16E-11,  avg # of iterations =  2.0

     negative rho (up, down):  1.728E-01 0.000E+00

     total cpu time spent up to now is      220.1 secs

     total energy              =   -1639.29805410 Ry
     estimated scf accuracy    <       0.00000015 Ry

     iteration # 22     ecut=    90.00 Ry     beta= 0.10
     Davidson diagonalization with overlap

---- Real-time Memory Report at c_bands before calling an iterative solver
           948 MiB given to the printing process from OS
             0 MiB allocation reported by mallinfo(arena+hblkhd)
          6403 MiB available memory on the node where the printing process lives
------------------
     ethr =  5.16E-11,  avg # of iterations =  2.0

     negative rho (up, down):  1.728E-01 0.000E+00

     total cpu time spent up to now is      224.6 secs

     total energy              =   -1639.29807918 Ry
     estimated scf accuracy    <       0.00000017 Ry

     iteration # 23     ecut=    90.00 Ry     beta= 0.10
     Davidson diagonalization with overlap

---- Real-time Memory Report at c_bands before calling an iterative solver
           948 MiB given to the printing process from OS
             0 MiB allocation reported by mallinfo(arena+hblkhd)
          6405 MiB available memory on the node where the printing process lives
------------------
     ethr =  5.16E-11,  avg # of iterations =  2.0

     negative rho (up, down):  1.728E-01 0.000E+00

     total cpu time spent up to now is      229.0 secs

     total energy              =   -1639.29809946 Ry
     estimated scf accuracy    <       0.00000018 Ry

     iteration # 24     ecut=    90.00 Ry     beta= 0.10
     Davidson diagonalization with overlap

---- Real-time Memory Report at c_bands before calling an iterative solver
           948 MiB given to the printing process from OS
             0 MiB allocation reported by mallinfo(arena+hblkhd)
          6409 MiB available memory on the node where the printing process lives
------------------
     ethr =  5.16E-11,  avg # of iterations =  2.0

     negative rho (up, down):  1.728E-01 0.000E+00

     total cpu time spent up to now is      233.6 secs

     total energy              =   -1639.29811584 Ry
     estimated scf accuracy    <       0.00000020 Ry

     iteration # 25     ecut=    90.00 Ry     beta= 0.10
     Davidson diagonalization with overlap

---- Real-time Memory Report at c_bands before calling an iterative solver
           948 MiB given to the printing process from OS
             0 MiB allocation reported by mallinfo(arena+hblkhd)
          6406 MiB available memory on the node where the printing process lives
------------------
     ethr =  5.16E-11,  avg # of iterations =  1.8

     negative rho (up, down):  1.728E-01 0.000E+00

     total cpu time spent up to now is      238.0 secs

     total energy              =   -1639.29812907 Ry
     estimated scf accuracy    <       0.00000026 Ry

     iteration # 26     ecut=    90.00 Ry     beta= 0.10
     Davidson diagonalization with overlap

---- Real-time Memory Report at c_bands before calling an iterative solver
           948 MiB given to the printing process from OS
             0 MiB allocation reported by mallinfo(arena+hblkhd)
          6406 MiB available memory on the node where the printing process lives
------------------
     ethr =  5.16E-11,  avg # of iterations =  1.2

     negative rho (up, down):  1.728E-01 0.000E+00

     total cpu time spent up to now is      242.3 secs

     total energy              =   -1639.29813979 Ry
     estimated scf accuracy    <       0.00000030 Ry

     iteration # 27     ecut=    90.00 Ry     beta= 0.10
     Davidson diagonalization with overlap

---- Real-time Memory Report at c_bands before calling an iterative solver
           948 MiB given to the printing process from OS
             0 MiB allocation reported by mallinfo(arena+hblkhd)
          6408 MiB available memory on the node where the printing process lives
------------------
     ethr =  5.16E-11,  avg # of iterations =  1.2

     negative rho (up, down):  1.728E-01 0.000E+00

     total cpu time spent up to now is      246.6 secs

     total energy              =   -1639.29814847 Ry
     estimated scf accuracy    <       0.00000028 Ry

     iteration # 28     ecut=    90.00 Ry     beta= 0.10
     Davidson diagonalization with overlap

---- Real-time Memory Report at c_bands before calling an iterative solver
           948 MiB given to the printing process from OS
             0 MiB allocation reported by mallinfo(arena+hblkhd)
          6404 MiB available memory on the node where the printing process lives
------------------
     ethr =  5.16E-11,  avg # of iterations =  1.2

     negative rho (up, down):  1.728E-01 0.000E+00

     total cpu time spent up to now is      250.9 secs

     total energy              =   -1639.29815548 Ry
     estimated scf accuracy    <       0.00000030 Ry

     iteration # 29     ecut=    90.00 Ry     beta= 0.10
     Davidson diagonalization with overlap

---- Real-time Memory Report at c_bands before calling an iterative solver
           948 MiB given to the printing process from OS
             0 MiB allocation reported by mallinfo(arena+hblkhd)
          6407 MiB available memory on the node where the printing process lives
------------------
     ethr =  5.16E-11,  avg # of iterations =  1.1

     negative rho (up, down):  1.728E-01 0.000E+00

     total cpu time spent up to now is      255.3 secs

     total energy              =   -1639.29816115 Ry
     estimated scf accuracy    <       0.00000032 Ry

     iteration # 30     ecut=    90.00 Ry     beta= 0.10
     Davidson diagonalization with overlap

---- Real-time Memory Report at c_bands before calling an iterative solver
           948 MiB given to the printing process from OS
             0 MiB allocation reported by mallinfo(arena+hblkhd)
          6410 MiB available memory on the node where the printing process lives
------------------
     ethr =  5.16E-11,  avg # of iterations =  1.0

     negative rho (up, down):  1.728E-01 0.000E+00

     total cpu time spent up to now is      259.5 secs

     total energy              =   -1639.29816574 Ry
     estimated scf accuracy    <       0.00000038 Ry

     iteration # 31     ecut=    90.00 Ry     beta= 0.10
     Davidson diagonalization with overlap

---- Real-time Memory Report at c_bands before calling an iterative solver
           948 MiB given to the printing process from OS
             0 MiB allocation reported by mallinfo(arena+hblkhd)
          6405 MiB available memory on the node where the printing process lives
------------------
     ethr =  5.16E-11,  avg # of iterations =  1.0

     negative rho (up, down):  1.728E-01 0.000E+00

     total cpu time spent up to now is      263.7 secs

     total energy              =   -1639.29816946 Ry
     estimated scf accuracy    <       0.00000037 Ry

     iteration # 32     ecut=    90.00 Ry     beta= 0.10
     Davidson diagonalization with overlap

---- Real-time Memory Report at c_bands before calling an iterative solver
           948 MiB given to the printing process from OS
             0 MiB allocation reported by mallinfo(arena+hblkhd)
          6406 MiB available memory on the node where the printing process lives
------------------
     ethr =  5.16E-11,  avg # of iterations =  3.2

     negative rho (up, down):  1.728E-01 0.000E+00

     total cpu time spent up to now is      268.5 secs

     total energy              =   -1639.29817248 Ry
     estimated scf accuracy    <       0.00000011 Ry

     iteration # 33     ecut=    90.00 Ry     beta= 0.10
     Davidson diagonalization with overlap

---- Real-time Memory Report at c_bands before calling an iterative solver
           948 MiB given to the printing process from OS
             0 MiB allocation reported by mallinfo(arena+hblkhd)
          6404 MiB available memory on the node where the printing process lives
------------------
     ethr =  5.16E-11,  avg # of iterations =  1.5

     negative rho (up, down):  1.728E-01 0.000E+00

     total cpu time spent up to now is      272.9 secs

     total energy              =   -1639.29817492 Ry
     estimated scf accuracy    <       0.00000009 Ry

     iteration # 34     ecut=    90.00 Ry     beta= 0.10
     Davidson diagonalization with overlap

---- Real-time Memory Report at c_bands before calling an iterative solver
           948 MiB given to the printing process from OS
             0 MiB allocation reported by mallinfo(arena+hblkhd)
          6403 MiB available memory on the node where the printing process lives
------------------
     ethr =  5.16E-11,  avg # of iterations =  1.0

     negative rho (up, down):  1.728E-01 0.000E+00

     total cpu time spent up to now is      277.1 secs

     total energy              =   -1639.29817690 Ry
     estimated scf accuracy    <       0.00000008 Ry

     iteration # 35     ecut=    90.00 Ry     beta= 0.10
     Davidson diagonalization with overlap

---- Real-time Memory Report at c_bands before calling an iterative solver
           948 MiB given to the printing process from OS
             0 MiB allocation reported by mallinfo(arena+hblkhd)
          6283 MiB available memory on the node where the printing process lives
------------------
     ethr =  5.16E-11,  avg # of iterations =  3.2

     negative rho (up, down):  1.728E-01 0.000E+00

     total cpu time spent up to now is      281.9 secs

     total energy              =   -1639.29817852 Ry
     estimated scf accuracy    <       0.00000001 Ry

     iteration # 36     ecut=    90.00 Ry     beta= 0.10
     Davidson diagonalization with overlap

---- Real-time Memory Report at c_bands before calling an iterative solver
           948 MiB given to the printing process from OS
             0 MiB allocation reported by mallinfo(arena+hblkhd)
          6405 MiB available memory on the node where the printing process lives
------------------
     ethr =  8.62E-12,  avg # of iterations =  4.1

     negative rho (up, down):  1.728E-01 0.000E+00

     total cpu time spent up to now is      286.9 secs

     total energy              =   -1639.29817980 Ry
     estimated scf accuracy    <       0.00000002 Ry

     iteration # 37     ecut=    90.00 Ry     beta= 0.10
     Davidson diagonalization with overlap

---- Real-time Memory Report at c_bands before calling an iterative solver
           948 MiB given to the printing process from OS
             0 MiB allocation reported by mallinfo(arena+hblkhd)
          6405 MiB available memory on the node where the printing process lives
------------------
     ethr =  8.62E-12,  avg # of iterations =  3.6

     negative rho (up, down):  1.728E-01 0.000E+00

     total cpu time spent up to now is      291.7 secs

     End of self-consistent calculation

          k = 0.0000 0.0000 0.0000 ( 16559 PWs)   bands (ev):

  -101.7087-101.7086-101.2938 -59.2354 -59.2354 -59.2316 -59.2315 -58.8387
   -58.8379 -58.8289 -58.6287 -58.6284 -30.6247 -15.9414 -15.9290 -11.0895
   -10.6019 -10.5983  -7.6608  -6.7907  -6.5959  -6.4784  -6.3414  -6.2307
    -1.3861  -1.1330  -0.8434  -0.8413  -0.8306  -0.8285   5.5305   5.7645
     5.7693   5.9185   6.0904   6.1009   6.9237   6.9845   7.4035   7.4042
     7.9088   7.9995   8.0295   8.0441   8.2271   8.2295   8.2459   8.2459
     8.2482   8.4127   8.5704   8.5811   8.6748   8.8716   8.9038   8.9139
     9.1678   9.2927   9.3118   9.4753   9.5441  10.1479  10.1495  12.6775
    13.4044  13.5704  13.7381  14.7918  15.3580  15.5610  15.5684  15.6989
    16.0909  16.4258

     occupation numbers 
     1.0000   1.0000   1.0000   1.0000   1.0000   1.0000   1.0000   1.0000
     1.0000   1.0000   1.0000   1.0000   1.0000   1.0000   1.0000   1.0000
     1.0000   1.0000   1.0000   1.0000   1.0000   1.0000   1.0000   1.0000
     1.0000   1.0000   1.0000   1.0000   1.0000   1.0000   1.0000   1.0000
     1.0000   1.0000   1.0000   1.0000   1.0000   1.0000   1.0000   1.0000
     1.0000   1.0000   1.0000   1.0000   1.0000   1.0000   1.0000   1.0000
     1.0000   1.0000   1.0000   1.0000   1.0000   1.0000   1.0000   1.0000
     1.0000   1.0000   1.0000   1.0000   1.0000   1.0355   1.0354  -0.0000
    -0.0000  -0.0000  -0.0000  -0.0000  -0.0000  -0.0000  -0.0000  -0.0000
    -0.0000  -0.0000

          k = 0.0000 0.0000-0.1634 ( 16578 PWs)   bands (ev):

  -101.7087-101.7086-101.2938 -59.2354 -59.2354 -59.2316 -59.2315 -58.8387
   -58.8379 -58.8289 -58.6287 -58.6284 -30.6247 -15.9425 -15.9279 -11.0896
   -10.6019 -10.5983  -7.6597  -6.7969  -6.5854  -6.4784  -6.3472  -6.2307
    -1.3575  -1.1633  -0.8450  -0.8429  -0.8290  -0.8269   5.5607   5.7642
     5.7690   5.9125   6.0905   6.1010   6.9354   6.9862   7.4033   7.4039
     7.6752   7.9996   8.0441   8.2016   8.2048   8.2147   8.2164   8.3151
     8.3213   8.4229   8.4596   8.4643   8.6748   9.0656   9.0886   9.1006
     9.1662   9.1703   9.1850   9.3506   9.4831  10.1526  10.1543  13.0711
    13.2441  13.5443  13.5766  14.7072  15.0878  15.5017  15.5065  15.6989
    15.9138  16.9886

     occupation numbers 
     1.0000   1.0000   1.0000   1.0000   1.0000   1.0000   1.0000   1.0000
[...]
     1.0000   1.0000   1.0000   1.0000   1.0000   1.0001   0.3907  -0.0000
    -0.0000  -0.0000  -0.0000  -0.0000  -0.0000  -0.0000  -0.0000  -0.0000
    -0.0000  -0.0000

          k =-0.4900-0.4900 0.0000 ( 17944 PWs)   bands (ev):

  -102.4209-102.4207-101.9398 -59.8999 -59.8998 -59.8996 -59.8995 -59.6561
   -59.6519 -59.5285 -59.2363 -59.2363 -31.5210 -16.4537 -16.4525 -11.9776
   -11.9775 -11.6161  -7.5698  -7.5694  -7.1353  -7.1347  -7.1119  -6.8351
    -2.1728  -2.1727  -2.1657  -2.1656  -1.9127  -1.8235   2.6445   3.3097
     4.4096   4.5708   4.6401   5.1802   5.2493   5.7708   5.7711   6.2386
     6.2392   6.7018   6.7018   6.8278   7.1875   7.7093   7.7093   7.9624
     8.2029   8.2449   8.6625   8.6778   8.7427   8.9113   8.9114   8.9765
     9.0545   9.0554   9.1062   9.6223   9.6223  11.9971  12.0444  12.0901
    13.1387  13.1387  14.0364  15.0362  15.0364  15.0549  15.0584  15.2875
    16.5861  16.5864

     occupation numbers 
     1.0000   1.0000   1.0000   1.0000   1.0000   1.0000   1.0000   1.0000
     1.0000   1.0000   1.0000   1.0000   1.0000   1.0000   1.0000   1.0000
     1.0000   1.0000   1.0000   1.0000   1.0000   1.0000   1.0000   1.0000
     1.0000   1.0000   1.0000   1.0000   1.0000   1.0000   1.0000   1.0000
     1.0000   1.0000   1.0000   1.0000   1.0000   1.0000   1.0000   1.0000
     1.0000   1.0000   1.0000   1.0000   1.0000   1.0000   1.0000   1.0000
     1.0000   1.0000   1.0000   1.0000   1.0000   1.0000   1.0000   1.0000
     1.0000   1.0000   1.0000   0.8164   0.8164  -0.0000  -0.0000  -0.0000
    -0.0000  -0.0000  -0.0000  -0.0000  -0.0000  -0.0000  -0.0000  -0.0000
    -0.0000  -0.0000

          k =-0.4900-0.4900-0.1578 ( 17904 PWs)   bands (ev):

  -102.4209-102.4207-101.9398 -59.8999 -59.8998 -59.8996 -59.8995 -59.6561
   -59.6519 -59.5285 -59.2363 -59.2363 -31.5210 -16.4546 -16.4516 -11.9776
   -11.9775 -11.6161  -7.5698  -7.5694  -7.1353  -7.1347  -7.1119  -6.8351
    -2.1731  -2.1729  -2.1655  -2.1654  -1.8750  -1.8622   2.6533   3.2946
     4.4217   4.5708   4.6401   5.1685   5.2576   5.7647   5.7650   6.2636
     6.2642   6.6786   6.6787   6.6918   7.5216   7.7140   7.7140   7.9632
     8.2029   8.2449   8.2936   8.6771   8.7427   8.8786   8.8787   8.9748
     9.0898   9.0907   9.2309   9.6188   9.6188  11.9971  12.0445  12.2680
    13.1431  13.1431  14.2735  14.3701  14.7392  15.3762  15.3768  15.6557
    15.6558  15.6802

     occupation numbers 
     1.0000   1.0000   1.0000   1.0000   1.0000   1.0000   1.0000   1.0000
     1.0000   1.0000   1.0000   1.0000   1.0000   1.0000   1.0000   1.0000
     1.0000   1.0000   1.0000   1.0000   1.0000   1.0000   1.0000   1.0000
     1.0000   1.0000   1.0000   1.0000   1.0000   1.0000   1.0000   1.0000
     1.0000   1.0000   1.0000   1.0000   1.0000   1.0000   1.0000   1.0000
     1.0000   1.0000   1.0000   1.0000   1.0000   1.0000   1.0000   1.0000
     1.0000   1.0000   1.0000   1.0000   1.0000   1.0000   1.0000   1.0000
     1.0000   1.0000   1.0000   0.8327   0.8325  -0.0000  -0.0000  -0.0000
    -0.0000  -0.0000  -0.0000  -0.0000  -0.0000  -0.0000  -0.0000  -0.0000
    -0.0000  -0.0000

          k =-0.4900 0.0000 0.0000 ( 17886 PWs)   bands (ev):

  -102.4209-102.4207-101.9398 -59.8999 -59.8998 -59.8996 -59.8995 -59.6561
   -59.6520 -59.5286 -59.2363 -59.2362 -31.5321 -16.5304 -16.5293 -12.0234
   -11.7921 -11.5089  -7.8300  -7.7496  -7.4521  -7.2016  -7.1821  -7.0199
    -1.9058  -1.8217  -1.7470  -1.6982  -1.3414  -1.3390   3.8706   4.0677
     5.1648   5.3491   5.4230   5.6104   6.0427   6.0531   6.1216   6.4170
     6.4783   6.4795   6.6694   6.7632   7.0941   7.1774   7.3472   7.4792
     7.5197   7.6169   7.6366   7.9385   8.0856   8.2628   8.6051   8.6060
     8.6685   8.9607   9.0450   9.1827   9.2557   9.3420   9.7379  11.7553
    14.0173  14.0659  14.5537  14.7528  14.9998  15.1112  15.2637  15.6695
    16.4127  16.4200

     occupation numbers 
     1.0000   1.0000   1.0000   1.0000   1.0000   1.0000   1.0000   1.0000
     1.0000   1.0000   1.0000   1.0000   1.0000   1.0000   1.0000   1.0000
     1.0000   1.0000   1.0000   1.0000   1.0000   1.0000   1.0000   1.0000
     1.0000   1.0000   1.0000   1.0000   1.0000   1.0000   1.0000   1.0000
     1.0000   1.0000   1.0000   1.0000   1.0000   1.0000   1.0000   1.0000
     1.0000   1.0000   1.0000   1.0000   1.0000   1.0000   1.0000   1.0000
     1.0000   1.0000   1.0000   1.0000   1.0000   1.0000   1.0000   1.0000
     1.0000   1.0000   1.0000   1.0000   1.0001   1.0013   0.1647  -0.0000
    -0.0000  -0.0000  -0.0000  -0.0000  -0.0000  -0.0000  -0.0000  -0.0000
    -0.0000  -0.0000

          k =-0.4900 0.0000 0.1578 ( 17932 PWs)   bands (ev):

  -102.4209-102.4207-101.9398 -59.8999 -59.8998 -59.8996 -59.8995 -59.6561
   -59.6520 -59.5286 -59.2363 -59.2362 -31.5321 -16.5316 -16.5281 -12.0234
   -11.7921 -11.5089  -7.8373  -7.7494  -7.3975  -7.2752  -7.1824  -6.9936
    -1.8816  -1.8465  -1.7461  -1.6992  -1.3435  -1.3369   3.8768   4.0615
     5.1599   5.3507   5.4224   5.6070   6.0539   6.1522   6.2265   6.3428
     6.3973   6.4294   6.5233   6.7907   7.1886   7.2533   7.2826   7.3602
     7.4413   7.7301   7.8893   7.9820   8.0657   8.0856   8.6065   8.6235
     8.6617   8.9601   9.1511   9.1902   9.2299   9.2552   9.6959  11.8045
    13.8507  14.0577  14.5538  14.7362  15.0412  15.1530  15.2610  15.6389
    16.2216  16.2724

     occupation numbers 
     1.0000   1.0000   1.0000   1.0000   1.0000   1.0000   1.0000   1.0000
     1.0000   1.0000   1.0000   1.0000   1.0000   1.0000   1.0000   1.0000
     1.0000   1.0000   1.0000   1.0000   1.0000   1.0000   1.0000   1.0000
     1.0000   1.0000   1.0000   1.0000   1.0000   1.0000   1.0000   1.0000
     1.0000   1.0000   1.0000   1.0000   1.0000   1.0000   1.0000   1.0000
     1.0000   1.0000   1.0000   1.0000   1.0000   1.0000   1.0000   1.0000
     1.0000   1.0000   1.0000   1.0000   1.0000   1.0000   1.0000   1.0000
     1.0000   1.0000   1.0000   1.0000   1.0000   1.0001   0.3898  -0.0000
    -0.0000  -0.0000  -0.0000  -0.0000  -0.0000  -0.0000  -0.0000  -0.0000
    -0.0000  -0.0000

     the Fermi energy is     9.6780 ev

!    total energy              =   -1639.33025699 Ry
     estimated scf accuracy    <          3.9E-11 Ry
     smearing contrib. (-TS)   =      -0.00217148 Ry
     internal energy E=F+TS    =   -1639.32808552 Ry

     The total energy is F=E-TS. E is the sum of the following terms:
     one-electron contribution =   -1504.70495413 Ry
     hartree contribution      =     816.96562573 Ry
     xc contribution           =    -243.33974829 Ry
     ewald contribution        =    -708.24900883 Ry

     convergence has been achieved in  40 iterations

     negative rho (up, down):  1.739E-01 0.000E+00

     Forces acting on atoms (cartesian axes, Ry/au):

     atom    1 type  1   force =     0.00000000    0.00000000    0.00000000
     atom    2 type  2   force =     0.00000000    0.00000000    0.00015200
     atom    3 type  2   force =     0.00000000    0.00000000   -0.00015200
     atom    4 type  3   force =     0.00000000    0.00000000    0.00000000
     atom    5 type  3   force =     0.00000000    0.00000000   -0.00029642
     atom    6 type  3   force =     0.00000000    0.00000000    0.00029642
     atom    7 type  4   force =     0.00000000    0.00000000    0.00012439
     atom    8 type  4   force =     0.00000000    0.00000000   -0.00012439
     atom    9 type  4   force =     0.00000000    0.00000000   -0.00002144
     atom   10 type  4   force =     0.00000000    0.00000000    0.00002144
     atom   11 type  4   force =     0.00000000    0.00000000   -0.00013179
     atom   12 type  4   force =     0.00000000    0.00000000    0.00013179
     The non-local contrib.  to forces
     atom    1 type  1   force =     0.00000000    0.00000000    0.00000000
     atom    2 type  2   force =     0.00000000    0.00000000   -0.04330762
     atom    3 type  2   force =     0.00000000    0.00000000    0.04330762
     atom    4 type  3   force =     0.00000000    0.00000000    0.00000000
     atom    5 type  3   force =     0.00000000    0.00000000   -0.05160273
     atom    6 type  3   force =     0.00000000    0.00000000    0.05160273
     atom    7 type  4   force =     0.00000000    0.00000000    0.13248741
     atom    8 type  4   force =     0.00000000    0.00000000   -0.13248741
     atom    9 type  4   force =     0.00000000    0.00000000    0.13192672
     atom   10 type  4   force =     0.00000000    0.00000000   -0.13192672
     atom   11 type  4   force =     0.00000000    0.00000000   -0.60383708
     atom   12 type  4   force =     0.00000000    0.00000000    0.60383708
     The ionic contribution  to forces
     atom    1 type  1   force =    -0.00000000   -0.00000000    0.00000000
     atom    2 type  2   force =    -0.00000000   -0.00000000  -27.25256974
     atom    3 type  2   force =    -0.00000000   -0.00000000   27.25256974
     atom    4 type  3   force =     0.00000000    0.00000000    0.00000000
     atom    5 type  3   force =     0.00000000    0.00000000  -47.53240815
     atom    6 type  3   force =     0.00000000    0.00000000   47.53240815
     atom    7 type  4   force =    -0.00000000    0.00000000  -14.85269992
     atom    8 type  4   force =    -0.00000000    0.00000000   14.85269992
     atom    9 type  4   force =     0.00000000   -0.00000000  -14.84627087
     atom   10 type  4   force =     0.00000000   -0.00000000   14.84627087
     atom   11 type  4   force =     0.00000000    0.00000000   -1.14053779
     atom   12 type  4   force =     0.00000000    0.00000000    1.14053779
     The local contribution  to forces
     atom    1 type  1   force =    -0.00000000   -0.00000000    0.00000000
     atom    2 type  2   force =    -0.00000000   -0.00000000   27.29525292
     atom    3 type  2   force =    -0.00000000   -0.00000000  -27.29525292
     atom    4 type  3   force =    -0.00000000    0.00000000    0.00000000
     atom    5 type  3   force =    -0.00000000    0.00000000   47.58378321
     atom    6 type  3   force =    -0.00000000   -0.00000000  -47.58378321
     atom    7 type  4   force =    -0.00000000    0.00000000   14.72084288
     atom    8 type  4   force =    -0.00000000    0.00000000  -14.72084288
     atom    9 type  4   force =    -0.00000000   -0.00000000   14.71482386
     atom   10 type  4   force =    -0.00000000   -0.00000000  -14.71482386
     atom   11 type  4   force =    -0.00000000    0.00000000    1.74059459
     atom   12 type  4   force =     0.00000000    0.00000000   -1.74059459
     The core correction contribution to forces
     atom    1 type  1   force =     0.00000000    0.00000000   -0.00000000
     atom    2 type  2   force =     0.00000000    0.00000000    0.00076065
     atom    3 type  2   force =     0.00000000    0.00000000   -0.00076065
     atom    4 type  3   force =    -0.00000000    0.00000000    0.00000000
     atom    5 type  3   force =    -0.00000000    0.00000000   -0.00008193
     atom    6 type  3   force =    -0.00000000    0.00000000    0.00008193
     atom    7 type  4   force =    -0.00000000   -0.00000000   -0.00050907
     atom    8 type  4   force =    -0.00000000    0.00000000    0.00050907
     atom    9 type  4   force =    -0.00000000   -0.00000000   -0.00050417
     atom   10 type  4   force =    -0.00000000   -0.00000000    0.00050417
     atom   11 type  4   force =     0.00000000    0.00000000    0.00364729
     atom   12 type  4   force =     0.00000000    0.00000000   -0.00364729
     The Hubbard contrib.    to forces
     atom    1 type  1   force =     0.00000000    0.00000000    0.00000000
     atom    2 type  2   force =     0.00000000    0.00000000    0.00000000
     atom    3 type  2   force =     0.00000000    0.00000000    0.00000000
     atom    4 type  3   force =     0.00000000    0.00000000    0.00000000
     atom    5 type  3   force =     0.00000000    0.00000000    0.00000000
     atom    6 type  3   force =     0.00000000    0.00000000    0.00000000
     atom    7 type  4   force =     0.00000000    0.00000000    0.00000000
     atom    8 type  4   force =     0.00000000    0.00000000    0.00000000
     atom    9 type  4   force =     0.00000000    0.00000000    0.00000000
     atom   10 type  4   force =     0.00000000    0.00000000    0.00000000
     atom   11 type  4   force =     0.00000000    0.00000000    0.00000000
     atom   12 type  4   force =     0.00000000    0.00000000    0.00000000
     The SCF correction term to forces
     atom    1 type  1   force =    -0.00000000   -0.00000000    0.00000000
     atom    2 type  2   force =    -0.00000000   -0.00000000    0.00001579
     atom    3 type  2   force =     0.00000000    0.00000000   -0.00001579
     atom    4 type  3   force =     0.00000000    0.00000000    0.00000000
     atom    5 type  3   force =    -0.00000000    0.00000000    0.00001317
     atom    6 type  3   force =    -0.00000000    0.00000000   -0.00001317
     atom    7 type  4   force =    -0.00000000   -0.00000000    0.00000309
     atom    8 type  4   force =     0.00000000    0.00000000   -0.00000309
     atom    9 type  4   force =     0.00000000    0.00000000    0.00000302
     atom   10 type  4   force =    -0.00000000    0.00000000   -0.00000302
     atom   11 type  4   force =    -0.00000000    0.00000000    0.00000120
     atom   12 type  4   force =    -0.00000000   -0.00000000   -0.00000120

     Total force =     0.000537     Total SCF correction =     0.000030


     Computing stress (Cartesian axis) and pressure


     negative rho (up, down):  1.739E-01 0.000E+00
          total   stress  (Ry/bohr**3)                   (kbar)     P=        0.77
   0.00000438   0.00000000   0.00000000            0.64        0.00        0.00
   0.00000000   0.00000477   0.00000000            0.00        0.70        0.00
   0.00000000   0.00000000   0.00000655            0.00        0.00        0.96

     kinetic stress (kbar)  20575.36      0.00      0.00
                                0.00  20575.31      0.00
                                0.00      0.00  20615.39

     local   stress (kbar) -52381.96     -0.00     -0.00
                               -0.00 -52387.71      0.00
                               -0.00      0.00  21932.41

     nonloc. stress (kbar)  10300.03      0.00      0.00
                                0.00  10300.11      0.00
                                0.00      0.00  10334.09

     hartree stress (kbar)  44259.59     -0.00     -0.00
                               -0.00  44262.36      0.00
                               -0.00      0.00   8263.63

     exc-cor stress (kbar)   -221.71     -0.00     -0.00
                               -0.00   -221.71      0.00
                               -0.00      0.00   -225.97

     corecor stress (kbar)  -7356.77      0.00     -0.00
                                0.00  -7356.77     -0.00
                               -0.00     -0.00  -7357.39

     ewald   stress (kbar) -15173.90     -0.00      0.00
                               -0.00 -15170.89     -0.00
                                0.00     -0.00 -53561.18

     hubbard stress (kbar)      0.00      0.00      0.00
                                0.00      0.00      0.00
                                0.00      0.00      0.00

     DFT-D   stress (kbar)      0.00      0.00      0.00
                                0.00      0.00      0.00
                                0.00      0.00      0.00

     XDM     stress (kbar)      0.00      0.00      0.00
                                0.00      0.00      0.00
                                0.00      0.00      0.00

     dft-nl  stress (kbar)      0.00      0.00      0.00
                                0.00      0.00      0.00
                                0.00      0.00      0.00

     TS-vdW  stress (kbar)      0.00      0.00      0.00
                                0.00      0.00      0.00
                                0.00      0.00      0.00

     MDB     stress (kbar)      0.00      0.00      0.00
                                0.00      0.00      0.00
                                0.00      0.00      0.00

     3D-RISM stress (kbar)      0.00      0.00      0.00
                                0.00      0.00      0.00
                                0.00      0.00      0.00


     Writing all to output data dir ./YBCO.vc-relax/YBCO.vc-relax.save/
 
     init_run     :      5.66s CPU      6.19s WALL (       2 calls)
     electrons    :   1571.04s CPU   1723.20s WALL (      16 calls)
     update_pot   :     10.23s CPU     10.31s WALL (      14 calls)
     forces       :     23.24s CPU     25.89s WALL (      16 calls)
     stress       :    194.23s CPU    214.87s WALL (      16 calls)

     Called by init_run:
     wfcinit      :      2.25s CPU      2.31s WALL (       2 calls)
     wfcinit:atom :      0.04s CPU      0.04s WALL (      16 calls)
     wfcinit:wfcr :      2.04s CPU      2.09s WALL (      16 calls)
     potinit      :      0.13s CPU      0.15s WALL (       2 calls)
     hinit0       :      1.83s CPU      1.86s WALL (       2 calls)

     Called by electrons:
     c_bands      :    849.11s CPU    860.10s WALL (     369 calls)
     sum_band     :    441.75s CPU    520.15s WALL (     369 calls)
     v_of_rho     :     22.74s CPU     22.98s WALL (     384 calls)
     v_h          :      1.94s CPU      2.00s WALL (     384 calls)
     v_xc         :     22.49s CPU     22.76s WALL (     416 calls)
     newd         :    262.58s CPU    327.78s WALL (     384 calls)
     mix_rho      :      4.05s CPU      4.23s WALL (     369 calls)

     Called by c_bands:
     init_us_2    :     17.76s CPU     18.00s WALL (    6176 calls)
     init_us_2:cp :     17.73s CPU     17.99s WALL (    6176 calls)
     cegterg      :    753.16s CPU    763.47s WALL (    2952 calls)

     Called by sum_band:
     sum_band:wei :      0.16s CPU      0.16s WALL (     369 calls)
     sum_band:loo :    131.67s CPU    133.69s WALL (     369 calls)
     sum_band:buf :      2.95s CPU      2.97s WALL (    2952 calls)
     sum_band:ini :      8.40s CPU      8.44s WALL (    2952 calls)
     sum_band:cal :     28.64s CPU     29.13s WALL (    2952 calls)
     sum_band:bec :      0.22s CPU      0.22s WALL (    2952 calls)
     addusdens    :    305.24s CPU    380.02s WALL (     369 calls)
                                        0.00s GPU  (     369 calls)
     addusd:skk   :      1.21s CPU      1.31s WALL (    1476 calls)
                                        0.00s GPU  (    1476 calls)

     Called by *egterg:
     cdiaghg      :     29.13s CPU     29.36s WALL (    9287 calls)
     cegterg:over :     58.24s CPU     59.42s WALL (    6455 calls)
     cegterg:upda :     30.79s CPU     30.89s WALL (    6455 calls)
     cegterg:last :     61.62s CPU     61.71s WALL (    4901 calls)
     h_psi        :    468.48s CPU    475.95s WALL (    9423 calls)
     s_psi        :     66.69s CPU     67.09s WALL (    9423 calls)
     g_psi        :      2.27s CPU      2.28s WALL (    6455 calls)

     Called by h_psi:
     h_psi:calbec :     67.21s CPU     68.23s WALL (    9423 calls)
     vloc_psi     :    329.48s CPU    335.65s WALL (    9423 calls)
     add_vuspsi   :     66.23s CPU     66.40s WALL (    9423 calls)

     General routines
     calbec       :    111.13s CPU    118.64s WALL (   13015 calls)
     fft          :     12.38s CPU     12.81s WALL (    5375 calls)
     ffts         :      0.45s CPU      0.46s WALL (     753 calls)
     fftw         :    313.26s CPU    319.00s WALL ( 1199706 calls)
     interpolate  :      1.34s CPU      1.38s WALL (     384 calls)
 
     Parallel routines
 
     PWSCF        :  30m14.09s CPU  33m12.93s WALL

 
   This run was terminated on:   0:48: 3  29Dec2023            

=------------------------------------------------------------------------------=
   JOB DONE.
=------------------------------------------------------------------------------=
