
     Program PWSCF v.7.2 starts on 29Dec2023 at 12:13:11 

     This program is part of the open-source Quantum ESPRESSO suite
     for quantum simulation of materials; please cite
         "P. Giannozzi et al., J. Phys.:Condens. Matter 21 395502 (2009);
         "P. Giannozzi et al., J. Phys.:Condens. Matter 29 465901 (2017);
         "P. Giannozzi et al., J. Chem. Phys. 152 154105 (2020);
          URL http://www.quantum-espresso.org", 
     in publications or presentations arising from this work. More details at
     http://www.quantum-espresso.org/quote

     Parallel version (MPI), running on     4 processors

     MPI processes distributed on     1 nodes
     8022 MiB available memory on the printing compute node when the environment starts
 
     Waiting for input...
     Reading input from standard input
Warning: card &IONS ignored
Warning: card / ignored
Warning: card &CELL ignored
Warning: card / ignored

     Current dimensions of program PWSCF are:
     Max number of different atomic species (ntypx) = 10
     Max number of k-points (npk) =  40000
     Max angular momentum in pseudopotentials (lmaxx) =  4

     Atomic positions and unit cell read from directory:
     ./YBCO6/YBCO6.save/
 
 
     R & G space division:  proc/nbgrp/npool/nimage =       4
     Subspace diagonalization in iterative solution of the eigenvalue problem:
     a serial algorithm will be used

 
     Parallelization info
     --------------------
     sticks:   dense  smooth     PW     G-vecs:    dense   smooth      PW
     Min         768     384    109                96560    34108    5157
     Max         770     386    110                96564    34112    5164
     Sum        3077    1541    437               386249   136441   20643
 
     Using Slab Decomposition
 


     bravais-lattice index     =            6
     lattice parameter (alat)  =       7.3208  a.u.
     unit-cell volume          =    1184.0154 (a.u.)^3
     number of atoms/cell      =           12
     number of atomic types    =            4
     number of electrons       =       124.00
     number of Kohn-Sham states=           94
     kinetic-energy cutoff     =      90.0000  Ry
     charge density cutoff     =     720.0000  Ry
     Exchange-correlation= SLA  PW   PBE  PBE
                           (   1   4   3   4   0   0   0)

     celldm(1)=   7.320840  celldm(2)=   0.000000  celldm(3)=   3.017690
     celldm(4)=   0.000000  celldm(5)=   0.000000  celldm(6)=   0.000000

     crystal axes: (cart. coord. in units of alat)
               a(1) = (   1.000000   0.000000   0.000000 )  
               a(2) = (   0.000000   1.000000   0.000000 )  
               a(3) = (   0.000000   0.000000   3.017690 )  

     reciprocal axes: (cart. coord. in units 2 pi/alat)
               b(1) = (  1.000000  0.000000  0.000000 )  
               b(2) = (  0.000000  1.000000  0.000000 )  
               b(3) = (  0.000000  0.000000  0.331379 )  


     PseudoPot. # 1 for Y  read from file:
     ~/q-e/pseudo/all_pbe_UPF_v1.5/y_pbe_v1.4.uspp.F.UPF
     MD5 check sum: Not computed, couldn't open file
     Pseudo is Ultrasoft + core correction, Zval = 11.0
     Generated by new atomic code, or converted to UPF format
     Using radial grid of  885 points,  6 beta functions with: 
                l(1) =   0
                l(2) =   0
                l(3) =   1
                l(4) =   1
                l(5) =   2
                l(6) =   2
     Q(r) pseudized with  8 coefficients,  rinner =    1.200   1.200   1.200
                                                       1.200   1.200

     PseudoPot. # 2 for Ba read from file:
     ~/q-e/pseudo/all_pbe_UPF_v1.5/ba_pbe_v1.uspp.F.UPF
     MD5 check sum: Not computed, couldn't open file
     Pseudo is Ultrasoft + core correction, Zval = 10.0
     Generated by new atomic code, or converted to UPF format
     Using radial grid of  907 points,  7 beta functions with: 
                l(1) =   0
                l(2) =   0
                l(3) =   1
                l(4) =   1
                l(5) =   2
                l(6) =   2
                l(7) =   3
     Q(r) pseudized with  6 coefficients,  rinner =    1.700   1.700   1.700
                                                       1.700   1.700   1.700
                                                       1.700

     PseudoPot. # 3 for Cu read from file:
     ~/q-e/pseudo/all_pbe_UPF_v1.5/cu_pbe_v1.2.uspp.F.UPF
     MD5 check sum: Not computed, couldn't open file
     Pseudo is Ultrasoft + core correction, Zval = 19.0
     Generated by new atomic code, or converted to UPF format
     Using radial grid of  867 points,  6 beta functions with: 
                l(1) =   0
                l(2) =   0
                l(3) =   1
                l(4) =   1
                l(5) =   2
                l(6) =   2
     Q(r) pseudized with  8 coefficients,  rinner =    1.150   1.150   1.150
                                                       1.150   1.150

     PseudoPot. # 4 for O  read from file:
     ~/q-e/pseudo/all_pbe_UPF_v1.5/o_pbe_v1.2.uspp.F.UPF
     MD5 check sum: Not computed, couldn't open file
     Pseudo is Ultrasoft + core correction, Zval =  6.0
     Generated by new atomic code, or converted to UPF format
     Using radial grid of  737 points,  5 beta functions with: 
                l(1) =   0
                l(2) =   0
                l(3) =   1
                l(4) =   1
                l(5) =   2
     Q(r) pseudized with  8 coefficients,  rinner =    0.900   0.900   0.900
                                                       0.900   0.900

     atomic species   valence    mass     pseudopotential
     Y                11.00    88.90584     Y ( 1.00)
     Ba               10.00   137.32700     Ba( 1.00)
     Cu               19.00    63.54600     Cu( 1.00)
     O                 6.00    15.99900     O ( 1.00)

      8 Sym. Ops., with inversion, found


                                    s                        frac. trans.

      isym =  1     identity                                     

 cryst.   s( 1) = (     1          0          0      )
                  (     0          1          0      )
                  (     0          0          1      )

 cart.    s( 1) = (  1.0000000  0.0000000  0.0000000 )
                  (  0.0000000  1.0000000  0.0000000 )
                  (  0.0000000  0.0000000  1.0000000 )


      isym =  2     180 deg rotation - cart. axis [0,0,1]        

 cryst.   s( 2) = (    -1          0          0      )
                  (     0         -1          0      )
                  (     0          0          1      )

 cart.    s( 2) = ( -1.0000000  0.0000000  0.0000000 )
                  (  0.0000000 -1.0000000  0.0000000 )
                  (  0.0000000  0.0000000  1.0000000 )


      isym =  3     180 deg rotation - cart. axis [0,1,0]        

 cryst.   s( 3) = (    -1          0          0      )
                  (     0          1          0      )
                  (     0          0         -1      )

 cart.    s( 3) = ( -1.0000000  0.0000000  0.0000000 )
                  (  0.0000000  1.0000000  0.0000000 )
                  (  0.0000000  0.0000000 -1.0000000 )


      isym =  4     180 deg rotation - cart. axis [1,0,0]        

 cryst.   s( 4) = (     1          0          0      )
                  (     0         -1          0      )
                  (     0          0         -1      )

 cart.    s( 4) = (  1.0000000  0.0000000  0.0000000 )
                  (  0.0000000 -1.0000000  0.0000000 )
                  (  0.0000000  0.0000000 -1.0000000 )


      isym =  5     inversion                                    

 cryst.   s( 5) = (    -1          0          0      )
                  (     0         -1          0      )
                  (     0          0         -1      )

 cart.    s( 5) = ( -1.0000000  0.0000000  0.0000000 )
                  (  0.0000000 -1.0000000  0.0000000 )
                  (  0.0000000  0.0000000 -1.0000000 )


      isym =  6     inv. 180 deg rotation - cart. axis [0,0,1]   

 cryst.   s( 6) = (     1          0          0      )
                  (     0          1          0      )
                  (     0          0         -1      )

 cart.    s( 6) = (  1.0000000  0.0000000  0.0000000 )
                  (  0.0000000  1.0000000  0.0000000 )
                  (  0.0000000  0.0000000 -1.0000000 )


      isym =  7     inv. 180 deg rotation - cart. axis [0,1,0]   

 cryst.   s( 7) = (     1          0          0      )
                  (     0         -1          0      )
                  (     0          0          1      )

 cart.    s( 7) = (  1.0000000  0.0000000  0.0000000 )
                  (  0.0000000 -1.0000000  0.0000000 )
                  (  0.0000000  0.0000000  1.0000000 )


      isym =  8     inv. 180 deg rotation - cart. axis [1,0,0]   

 cryst.   s( 8) = (    -1          0          0      )
                  (     0          1          0      )
                  (     0          0          1      )

 cart.    s( 8) = ( -1.0000000  0.0000000  0.0000000 )
                  (  0.0000000  1.0000000  0.0000000 )
                  (  0.0000000  0.0000000  1.0000000 )


     point group D_2h (mmm) 
     there are  8 classes
     the character table:

       E     C2    C2'   C2''  i     s_v   s_v'  s_v''
A_g    1.00  1.00  1.00  1.00  1.00  1.00  1.00  1.00
B_1g   1.00  1.00 -1.00 -1.00  1.00  1.00 -1.00 -1.00
B_2g   1.00 -1.00  1.00 -1.00  1.00 -1.00  1.00 -1.00
B_3g   1.00 -1.00 -1.00  1.00  1.00 -1.00 -1.00  1.00
A_u    1.00  1.00  1.00  1.00 -1.00 -1.00 -1.00 -1.00
B_1u   1.00  1.00 -1.00 -1.00 -1.00 -1.00  1.00  1.00
B_2u   1.00 -1.00  1.00 -1.00 -1.00  1.00 -1.00  1.00
B_3u   1.00 -1.00 -1.00  1.00 -1.00  1.00  1.00 -1.00

     the symmetry operations in each class and the name of the first element:

     E        1
          identity                                               
     C2       2
          180 deg rotation - cart. axis [0,0,1]                  
     C2'      4
          180 deg rotation - cart. axis [1,0,0]                  
     C2''     3
          180 deg rotation - cart. axis [0,1,0]                  
     i        5
          inversion                                              
     s_v      6
          inv. 180 deg rotation - cart. axis [0,0,1]             
     s_v'     8
          inv. 180 deg rotation - cart. axis [1,0,0]             
     s_v''    7
          inv. 180 deg rotation - cart. axis [0,1,0]             

   Cartesian axes

     site n.     atom                  positions (alat units)
         1        Y      tau(   1) = (   0.5000000   0.5000000   1.5088451  )
         2        Ba     tau(   2) = (   0.5000000   0.5000000   0.5615829  )
         3        Ba     tau(   3) = (   0.5000000   0.5000000   2.4561072  )
         4        Cu     tau(   4) = (   0.0000000   0.0000000   0.0000000  )
         5        Cu     tau(   5) = (   0.0000000   0.0000000   1.0772132  )
         6        Cu     tau(   6) = (   0.0000000   0.0000000   1.9404769  )
         7        O      tau(   7) = (   0.5000000   0.0000000   1.1379760  )
         8        O      tau(   8) = (   0.5000000   0.0000000   1.8797141  )
         9        O      tau(   9) = (   0.0000000   0.5000000   1.1346923  )
        10        O      tau(  10) = (   0.0000000   0.5000000   1.8829979  )
        11        O      tau(  11) = (   0.0000000   0.0000000   0.4705240  )
        12        O      tau(  12) = (   0.0000000   0.0000000   2.5471662  )

   Crystallographic axes

     site n.     atom                  positions (cryst. coord.)
         1        Y      tau(   1) = (  0.5000000  0.5000000  0.5000000  )
         2        Ba     tau(   2) = (  0.5000000  0.5000000  0.1860969  )
         3        Ba     tau(   3) = (  0.5000000  0.5000000  0.8139031  )
         4        Cu     tau(   4) = (  0.0000000  0.0000000  0.0000000  )
         5        Cu     tau(   5) = (  0.0000000  0.0000000  0.3569661  )
         6        Cu     tau(   6) = (  0.0000000  0.0000000  0.6430339  )
         7        O      tau(   7) = (  0.5000000  0.0000000  0.3771017  )
         8        O      tau(   8) = (  0.5000000  0.0000000  0.6228983  )
         9        O      tau(   9) = (  0.0000000  0.5000000  0.3760135  )
        10        O      tau(  10) = (  0.0000000  0.5000000  0.6239865  )
        11        O      tau(  11) = (  0.0000000  0.0000000  0.1559219  )
        12        O      tau(  12) = (  0.0000000  0.0000000  0.8440781  )

     number of k points=   101
                       cart. coord. in units 2pi/alat
        k(    1) = (   0.0000000   0.0000000   0.0000000), wk =   0.0198020
        k(    2) = (   0.0250000   0.0000000   0.0000000), wk =   0.0198020
        k(    3) = (   0.0500000   0.0000000   0.0000000), wk =   0.0198020
        k(    4) = (   0.0750000   0.0000000   0.0000000), wk =   0.0198020
        k(    5) = (   0.1000000   0.0000000   0.0000000), wk =   0.0198020
        k(    6) = (   0.1250000   0.0000000   0.0000000), wk =   0.0198020
        k(    7) = (   0.1500000   0.0000000   0.0000000), wk =   0.0198020
        k(    8) = (   0.1750000   0.0000000   0.0000000), wk =   0.0198020
        k(    9) = (   0.2000000   0.0000000   0.0000000), wk =   0.0198020
        k(   10) = (   0.2250000   0.0000000   0.0000000), wk =   0.0198020
        k(   11) = (   0.2500000   0.0000000   0.0000000), wk =   0.0198020
        k(   12) = (   0.2750000   0.0000000   0.0000000), wk =   0.0198020
        k(   13) = (   0.3000000   0.0000000   0.0000000), wk =   0.0198020
        k(   14) = (   0.3250000   0.0000000   0.0000000), wk =   0.0198020
        k(   15) = (   0.3500000   0.0000000   0.0000000), wk =   0.0198020
        k(   16) = (   0.3750000   0.0000000   0.0000000), wk =   0.0198020
        k(   17) = (   0.4000000   0.0000000   0.0000000), wk =   0.0198020
        k(   18) = (   0.4250000   0.0000000   0.0000000), wk =   0.0198020
        k(   19) = (   0.4500000   0.0000000   0.0000000), wk =   0.0198020
        k(   20) = (   0.4750000   0.0000000   0.0000000), wk =   0.0198020
        k(   21) = (   0.5000000   0.0000000   0.0000000), wk =   0.0198020
        k(   22) = (   0.5000000   0.0250000   0.0000000), wk =   0.0198020
        k(   23) = (   0.5000000   0.0500000   0.0000000), wk =   0.0198020
        k(   24) = (   0.5000000   0.0750000   0.0000000), wk =   0.0198020
        k(   25) = (   0.5000000   0.1000000   0.0000000), wk =   0.0198020
        k(   26) = (   0.5000000   0.1250000   0.0000000), wk =   0.0198020
        k(   27) = (   0.5000000   0.1500000   0.0000000), wk =   0.0198020
        k(   28) = (   0.5000000   0.1750000   0.0000000), wk =   0.0198020
        k(   29) = (   0.5000000   0.2000000   0.0000000), wk =   0.0198020
        k(   30) = (   0.5000000   0.2250000   0.0000000), wk =   0.0198020
        k(   31) = (   0.5000000   0.2500000   0.0000000), wk =   0.0198020
        k(   32) = (   0.5000000   0.2750000   0.0000000), wk =   0.0198020
        k(   33) = (   0.5000000   0.3000000   0.0000000), wk =   0.0198020
        k(   34) = (   0.5000000   0.3250000   0.0000000), wk =   0.0198020
        k(   35) = (   0.5000000   0.3500000   0.0000000), wk =   0.0198020
        k(   36) = (   0.5000000   0.3750000   0.0000000), wk =   0.0198020
        k(   37) = (   0.5000000   0.4000000   0.0000000), wk =   0.0198020
        k(   38) = (   0.5000000   0.4250000   0.0000000), wk =   0.0198020
        k(   39) = (   0.5000000   0.4500000   0.0000000), wk =   0.0198020
        k(   40) = (   0.5000000   0.4750000   0.0000000), wk =   0.0198020
        k(   41) = (   0.5000000   0.5000000   0.0000000), wk =   0.0198020
        k(   42) = (   0.4750000   0.5000000   0.0000000), wk =   0.0198020
        k(   43) = (   0.4500000   0.5000000   0.0000000), wk =   0.0198020
        k(   44) = (   0.4250000   0.5000000   0.0000000), wk =   0.0198020
        k(   45) = (   0.4000000   0.5000000   0.0000000), wk =   0.0198020
        k(   46) = (   0.3750000   0.5000000   0.0000000), wk =   0.0198020
        k(   47) = (   0.3500000   0.5000000   0.0000000), wk =   0.0198020
        k(   48) = (   0.3250000   0.5000000   0.0000000), wk =   0.0198020
        k(   49) = (   0.3000000   0.5000000   0.0000000), wk =   0.0198020
        k(   50) = (   0.2750000   0.5000000   0.0000000), wk =   0.0198020
        k(   51) = (   0.2500000   0.5000000   0.0000000), wk =   0.0198020
        k(   52) = (   0.2250000   0.5000000   0.0000000), wk =   0.0198020
        k(   53) = (   0.2000000   0.5000000   0.0000000), wk =   0.0198020
        k(   54) = (   0.1750000   0.5000000   0.0000000), wk =   0.0198020
        k(   55) = (   0.1500000   0.5000000   0.0000000), wk =   0.0198020
        k(   56) = (   0.1250000   0.5000000   0.0000000), wk =   0.0198020
        k(   57) = (   0.1000000   0.5000000   0.0000000), wk =   0.0198020
        k(   58) = (   0.0750000   0.5000000   0.0000000), wk =   0.0198020
        k(   59) = (   0.0500000   0.5000000   0.0000000), wk =   0.0198020
        k(   60) = (   0.0250000   0.5000000   0.0000000), wk =   0.0198020
        k(   61) = (   0.0000000   0.5000000   0.0000000), wk =   0.0198020
        k(   62) = (   0.0000000   0.4750000   0.0000000), wk =   0.0198020
        k(   63) = (   0.0000000   0.4500000   0.0000000), wk =   0.0198020
        k(   64) = (   0.0000000   0.4250000   0.0000000), wk =   0.0198020
        k(   65) = (   0.0000000   0.4000000   0.0000000), wk =   0.0198020
        k(   66) = (   0.0000000   0.3750000   0.0000000), wk =   0.0198020
        k(   67) = (   0.0000000   0.3500000   0.0000000), wk =   0.0198020
        k(   68) = (   0.0000000   0.3250000   0.0000000), wk =   0.0198020
        k(   69) = (   0.0000000   0.3000000   0.0000000), wk =   0.0198020
        k(   70) = (   0.0000000   0.2750000   0.0000000), wk =   0.0198020
        k(   71) = (   0.0000000   0.2500000   0.0000000), wk =   0.0198020
        k(   72) = (   0.0000000   0.2250000   0.0000000), wk =   0.0198020
        k(   73) = (   0.0000000   0.2000000   0.0000000), wk =   0.0198020
        k(   74) = (   0.0000000   0.1750000   0.0000000), wk =   0.0198020
        k(   75) = (   0.0000000   0.1500000   0.0000000), wk =   0.0198020
        k(   76) = (   0.0000000   0.1250000   0.0000000), wk =   0.0198020
        k(   77) = (   0.0000000   0.1000000   0.0000000), wk =   0.0198020
        k(   78) = (   0.0000000   0.0750000   0.0000000), wk =   0.0198020
        k(   79) = (   0.0000000   0.0500000   0.0000000), wk =   0.0198020
        k(   80) = (   0.0000000   0.0250000   0.0000000), wk =   0.0198020
        k(   81) = (   0.0000000   0.0000000   0.0000000), wk =   0.0198020
        k(   82) = (   0.0250000   0.0250000   0.0000000), wk =   0.0198020
        k(   83) = (   0.0500000   0.0500000   0.0000000), wk =   0.0198020
        k(   84) = (   0.0750000   0.0750000   0.0000000), wk =   0.0198020
        k(   85) = (   0.1000000   0.1000000   0.0000000), wk =   0.0198020
        k(   86) = (   0.1250000   0.1250000   0.0000000), wk =   0.0198020
        k(   87) = (   0.1500000   0.1500000   0.0000000), wk =   0.0198020
        k(   88) = (   0.1750000   0.1750000   0.0000000), wk =   0.0198020
        k(   89) = (   0.2000000   0.2000000   0.0000000), wk =   0.0198020
        k(   90) = (   0.2250000   0.2250000   0.0000000), wk =   0.0198020
        k(   91) = (   0.2500000   0.2500000   0.0000000), wk =   0.0198020
        k(   92) = (   0.2750000   0.2750000   0.0000000), wk =   0.0198020
        k(   93) = (   0.3000000   0.3000000   0.0000000), wk =   0.0198020
        k(   94) = (   0.3250000   0.3250000   0.0000000), wk =   0.0198020
        k(   95) = (   0.3500000   0.3500000   0.0000000), wk =   0.0198020
        k(   96) = (   0.3750000   0.3750000   0.0000000), wk =   0.0198020
        k(   97) = (   0.4000000   0.4000000   0.0000000), wk =   0.0198020
        k(   98) = (   0.4250000   0.4250000   0.0000000), wk =   0.0198020
        k(   99) = (   0.4500000   0.4500000   0.0000000), wk =   0.0198020
        k(  100) = (   0.4750000   0.4750000   0.0000000), wk =   0.0198020
        k(  101) = (   0.5000000   0.5000000   0.0000000), wk =   0.0198020

                       cryst. coord.
        k(    1) = (   0.0000000   0.0000000   0.0000000), wk =   0.0198020
        k(    2) = (   0.0250000   0.0000000   0.0000000), wk =   0.0198020
        k(    3) = (   0.0500000   0.0000000   0.0000000), wk =   0.0198020
        k(    4) = (   0.0750000   0.0000000   0.0000000), wk =   0.0198020
        k(    5) = (   0.1000000   0.0000000   0.0000000), wk =   0.0198020
        k(    6) = (   0.1250000   0.0000000   0.0000000), wk =   0.0198020
        k(    7) = (   0.1500000   0.0000000   0.0000000), wk =   0.0198020
        k(    8) = (   0.1750000   0.0000000   0.0000000), wk =   0.0198020
        k(    9) = (   0.2000000   0.0000000   0.0000000), wk =   0.0198020
        k(   10) = (   0.2250000   0.0000000   0.0000000), wk =   0.0198020
        k(   11) = (   0.2500000   0.0000000   0.0000000), wk =   0.0198020
        k(   12) = (   0.2750000   0.0000000   0.0000000), wk =   0.0198020
        k(   13) = (   0.3000000   0.0000000   0.0000000), wk =   0.0198020
        k(   14) = (   0.3250000   0.0000000   0.0000000), wk =   0.0198020
        k(   15) = (   0.3500000   0.0000000   0.0000000), wk =   0.0198020
        k(   16) = (   0.3750000   0.0000000   0.0000000), wk =   0.0198020
        k(   17) = (   0.4000000   0.0000000   0.0000000), wk =   0.0198020
        k(   18) = (   0.4250000   0.0000000   0.0000000), wk =   0.0198020
        k(   19) = (   0.4500000   0.0000000   0.0000000), wk =   0.0198020
        k(   20) = (   0.4750000   0.0000000   0.0000000), wk =   0.0198020
        k(   21) = (   0.5000000   0.0000000   0.0000000), wk =   0.0198020
        k(   22) = (   0.5000000   0.0250000   0.0000000), wk =   0.0198020
        k(   23) = (   0.5000000   0.0500000   0.0000000), wk =   0.0198020
        k(   24) = (   0.5000000   0.0750000   0.0000000), wk =   0.0198020
        k(   25) = (   0.5000000   0.1000000   0.0000000), wk =   0.0198020
        k(   26) = (   0.5000000   0.1250000   0.0000000), wk =   0.0198020
        k(   27) = (   0.5000000   0.1500000   0.0000000), wk =   0.0198020
        k(   28) = (   0.5000000   0.1750000   0.0000000), wk =   0.0198020
        k(   29) = (   0.5000000   0.2000000   0.0000000), wk =   0.0198020
        k(   30) = (   0.5000000   0.2250000   0.0000000), wk =   0.0198020
        k(   31) = (   0.5000000   0.2500000   0.0000000), wk =   0.0198020
        k(   32) = (   0.5000000   0.2750000   0.0000000), wk =   0.0198020
        k(   33) = (   0.5000000   0.3000000   0.0000000), wk =   0.0198020
        k(   34) = (   0.5000000   0.3250000   0.0000000), wk =   0.0198020
        k(   35) = (   0.5000000   0.3500000   0.0000000), wk =   0.0198020
        k(   36) = (   0.5000000   0.3750000   0.0000000), wk =   0.0198020
        k(   37) = (   0.5000000   0.4000000   0.0000000), wk =   0.0198020
        k(   38) = (   0.5000000   0.4250000   0.0000000), wk =   0.0198020
        k(   39) = (   0.5000000   0.4500000   0.0000000), wk =   0.0198020
        k(   40) = (   0.5000000   0.4750000   0.0000000), wk =   0.0198020
        k(   41) = (   0.5000000   0.5000000   0.0000000), wk =   0.0198020
        k(   42) = (   0.4750000   0.5000000   0.0000000), wk =   0.0198020
        k(   43) = (   0.4500000   0.5000000   0.0000000), wk =   0.0198020
        k(   44) = (   0.4250000   0.5000000   0.0000000), wk =   0.0198020
        k(   45) = (   0.4000000   0.5000000   0.0000000), wk =   0.0198020
        k(   46) = (   0.3750000   0.5000000   0.0000000), wk =   0.0198020
        k(   47) = (   0.3500000   0.5000000   0.0000000), wk =   0.0198020
        k(   48) = (   0.3250000   0.5000000   0.0000000), wk =   0.0198020
        k(   49) = (   0.3000000   0.5000000   0.0000000), wk =   0.0198020
        k(   50) = (   0.2750000   0.5000000   0.0000000), wk =   0.0198020
        k(   51) = (   0.2500000   0.5000000   0.0000000), wk =   0.0198020
        k(   52) = (   0.2250000   0.5000000   0.0000000), wk =   0.0198020
        k(   53) = (   0.2000000   0.5000000   0.0000000), wk =   0.0198020
        k(   54) = (   0.1750000   0.5000000   0.0000000), wk =   0.0198020
        k(   55) = (   0.1500000   0.5000000   0.0000000), wk =   0.0198020
        k(   56) = (   0.1250000   0.5000000   0.0000000), wk =   0.0198020
        k(   57) = (   0.1000000   0.5000000   0.0000000), wk =   0.0198020
        k(   58) = (   0.0750000   0.5000000   0.0000000), wk =   0.0198020
        k(   59) = (   0.0500000   0.5000000   0.0000000), wk =   0.0198020
        k(   60) = (   0.0250000   0.5000000   0.0000000), wk =   0.0198020
        k(   61) = (   0.0000000   0.5000000   0.0000000), wk =   0.0198020
        k(   62) = (   0.0000000   0.4750000   0.0000000), wk =   0.0198020
        k(   63) = (   0.0000000   0.4500000   0.0000000), wk =   0.0198020
        k(   64) = (   0.0000000   0.4250000   0.0000000), wk =   0.0198020
        k(   65) = (   0.0000000   0.4000000   0.0000000), wk =   0.0198020
        k(   66) = (   0.0000000   0.3750000   0.0000000), wk =   0.0198020
        k(   67) = (   0.0000000   0.3500000   0.0000000), wk =   0.0198020
        k(   68) = (   0.0000000   0.3250000   0.0000000), wk =   0.0198020
        k(   69) = (   0.0000000   0.3000000   0.0000000), wk =   0.0198020
        k(   70) = (   0.0000000   0.2750000   0.0000000), wk =   0.0198020
        k(   71) = (   0.0000000   0.2500000   0.0000000), wk =   0.0198020
        k(   72) = (   0.0000000   0.2250000   0.0000000), wk =   0.0198020
        k(   73) = (   0.0000000   0.2000000   0.0000000), wk =   0.0198020
        k(   74) = (   0.0000000   0.1750000   0.0000000), wk =   0.0198020
        k(   75) = (   0.0000000   0.1500000   0.0000000), wk =   0.0198020
        k(   76) = (   0.0000000   0.1250000   0.0000000), wk =   0.0198020
        k(   77) = (   0.0000000   0.1000000   0.0000000), wk =   0.0198020
        k(   78) = (   0.0000000   0.0750000   0.0000000), wk =   0.0198020
        k(   79) = (   0.0000000   0.0500000   0.0000000), wk =   0.0198020
        k(   80) = (   0.0000000   0.0250000   0.0000000), wk =   0.0198020
        k(   81) = (   0.0000000   0.0000000   0.0000000), wk =   0.0198020
        k(   82) = (   0.0250000   0.0250000   0.0000000), wk =   0.0198020
        k(   83) = (   0.0500000   0.0500000   0.0000000), wk =   0.0198020
        k(   84) = (   0.0750000   0.0750000   0.0000000), wk =   0.0198020
        k(   85) = (   0.1000000   0.1000000   0.0000000), wk =   0.0198020
        k(   86) = (   0.1250000   0.1250000   0.0000000), wk =   0.0198020
        k(   87) = (   0.1500000   0.1500000   0.0000000), wk =   0.0198020
        k(   88) = (   0.1750000   0.1750000   0.0000000), wk =   0.0198020
        k(   89) = (   0.2000000   0.2000000   0.0000000), wk =   0.0198020
        k(   90) = (   0.2250000   0.2250000   0.0000000), wk =   0.0198020
        k(   91) = (   0.2500000   0.2500000   0.0000000), wk =   0.0198020
        k(   92) = (   0.2750000   0.2750000   0.0000000), wk =   0.0198020
        k(   93) = (   0.3000000   0.3000000   0.0000000), wk =   0.0198020
        k(   94) = (   0.3250000   0.3250000   0.0000000), wk =   0.0198020
        k(   95) = (   0.3500000   0.3500000   0.0000000), wk =   0.0198020
        k(   96) = (   0.3750000   0.3750000   0.0000000), wk =   0.0198020
        k(   97) = (   0.4000000   0.4000000   0.0000000), wk =   0.0198020
        k(   98) = (   0.4250000   0.4250000   0.0000000), wk =   0.0198020
        k(   99) = (   0.4500000   0.4500000   0.0000000), wk =   0.0198020
        k(  100) = (   0.4750000   0.4750000   0.0000000), wk =   0.0198020
        k(  101) = (   0.5000000   0.5000000   0.0000000), wk =   0.0198020

     Dense  grid:   386249 G-vectors     FFT dimensions: (  64,  64, 192)

     Smooth grid:   136441 G-vectors     FFT dimensions: (  45,  45, 135)

     Dynamical RAM for                 wfc:       6.12 MB

     Dynamical RAM for     wfc (w. buffer):       6.12 MB

     Dynamical RAM for           str. fact:       5.89 MB

     Dynamical RAM for           local pot:       0.00 MB

     Dynamical RAM for          nlocal pot:      13.02 MB

     Dynamical RAM for                qrad:      16.07 MB

     Dynamical RAM for          rho,v,vnew:       8.92 MB

     Dynamical RAM for           G-vectors:       5.79 MB

     Dynamical RAM for          h,s,v(r/c):       1.62 MB

     Dynamical RAM for          <psi|beta>:       0.29 MB

     Dynamical RAM for                 psi:      12.24 MB

     Dynamical RAM for                hpsi:      12.24 MB

     Dynamical RAM for                spsi:      12.24 MB

     Dynamical RAM for      wfcinit/wfcrot:      13.52 MB

     Dynamical RAM for           addusdens:     527.48 MB

     Estimated static dynamical RAM per process >      70.68 MB

     Estimated max dynamical RAM per process >     598.16 MB

     Estimated total dynamical RAM >       2.34 GB

     The potential is recalculated from file :
     ./YBCO6/YBCO6.save/charge-density


     negative rho (up, down):  1.728E-01 0.000E+00
     Starting wfcs are  102 randomized atomic wfcs

     Band Structure Calculation
     Davidson diagonalization with overlap

     Computing kpt #:     1  of   101
     total cpu time spent up to now is        6.1 secs

     Computing kpt #:     2  of   101
     total cpu time spent up to now is       11.0 secs

     Computing kpt #:     3  of   101
     total cpu time spent up to now is       15.5 secs

     Computing kpt #:     4  of   101
     total cpu time spent up to now is       20.3 secs

     Computing kpt #:     5  of   101
     total cpu time spent up to now is       25.8 secs

     Computing kpt #:     6  of   101
     total cpu time spent up to now is       31.3 secs

     Computing kpt #:     7  of   101
     total cpu time spent up to now is       36.8 secs

     Computing kpt #:     8  of   101
     total cpu time spent up to now is       42.4 secs

     Computing kpt #:     9  of   101
     total cpu time spent up to now is       48.0 secs

     Computing kpt #:    10  of   101
     total cpu time spent up to now is       53.7 secs

     Computing kpt #:    11  of   101
     total cpu time spent up to now is       58.8 secs

     Computing kpt #:    12  of   101
     total cpu time spent up to now is       63.9 secs

     Computing kpt #:    13  of   101
     total cpu time spent up to now is       69.2 secs

     Computing kpt #:    14  of   101
     total cpu time spent up to now is       74.4 secs

     Computing kpt #:    15  of   101
     total cpu time spent up to now is       79.5 secs

     Computing kpt #:    16  of   101
     total cpu time spent up to now is       84.6 secs

     Computing kpt #:    17  of   101
     total cpu time spent up to now is       89.9 secs

     Computing kpt #:    18  of   101
     total cpu time spent up to now is       95.0 secs

     Computing kpt #:    19  of   101
     total cpu time spent up to now is      100.1 secs

     Computing kpt #:    20  of   101
     total cpu time spent up to now is      105.2 secs

     Computing kpt #:    21  of   101
     total cpu time spent up to now is      110.3 secs

     Computing kpt #:    22  of   101
     total cpu time spent up to now is      115.6 secs

     Computing kpt #:    23  of   101
     total cpu time spent up to now is      120.8 secs

     Computing kpt #:    24  of   101
     total cpu time spent up to now is      126.0 secs

     Computing kpt #:    25  of   101
     total cpu time spent up to now is      131.2 secs

     Computing kpt #:    26  of   101
     total cpu time spent up to now is      136.3 secs

     Computing kpt #:    27  of   101
     total cpu time spent up to now is      141.9 secs

     Computing kpt #:    28  of   101
     total cpu time spent up to now is      147.5 secs

     Computing kpt #:    29  of   101
     total cpu time spent up to now is      153.5 secs

     Computing kpt #:    30  of   101
     total cpu time spent up to now is      159.0 secs

     Computing kpt #:    31  of   101
     total cpu time spent up to now is      164.3 secs

     Computing kpt #:    32  of   101
     total cpu time spent up to now is      169.5 secs

     Computing kpt #:    33  of   101
     total cpu time spent up to now is      174.9 secs

     Computing kpt #:    34  of   101
     total cpu time spent up to now is      180.3 secs

     Computing kpt #:    35  of   101
     total cpu time spent up to now is      185.5 secs

     Computing kpt #:    36  of   101
     total cpu time spent up to now is      190.7 secs

     Computing kpt #:    37  of   101
     total cpu time spent up to now is      195.8 secs

     Computing kpt #:    38  of   101
     total cpu time spent up to now is      201.0 secs

     Computing kpt #:    39  of   101
     total cpu time spent up to now is      206.2 secs

     Computing kpt #:    40  of   101
     total cpu time spent up to now is      211.5 secs

     Computing kpt #:    41  of   101
     total cpu time spent up to now is      216.7 secs

     Computing kpt #:    42  of   101
     total cpu time spent up to now is      221.8 secs

     Computing kpt #:    43  of   101
     total cpu time spent up to now is      227.0 secs

     Computing kpt #:    44  of   101
     total cpu time spent up to now is      232.2 secs

     Computing kpt #:    45  of   101
     total cpu time spent up to now is      237.4 secs

     Computing kpt #:    46  of   101
     total cpu time spent up to now is      242.5 secs

     Computing kpt #:    47  of   101
     total cpu time spent up to now is      247.7 secs

     Computing kpt #:    48  of   101
     total cpu time spent up to now is      253.3 secs

     Computing kpt #:    49  of   101
     total cpu time spent up to now is      258.7 secs

     Computing kpt #:    50  of   101
     total cpu time spent up to now is      264.1 secs

     Computing kpt #:    51  of   101
     total cpu time spent up to now is      269.5 secs

     Computing kpt #:    52  of   101
     total cpu time spent up to now is      275.2 secs

     Computing kpt #:    53  of   101
     total cpu time spent up to now is      280.8 secs

     Computing kpt #:    54  of   101
     total cpu time spent up to now is      286.3 secs

     Computing kpt #:    55  of   101
     total cpu time spent up to now is      291.8 secs

     Computing kpt #:    56  of   101
     total cpu time spent up to now is      297.1 secs

     Computing kpt #:    57  of   101
     total cpu time spent up to now is      302.5 secs

     Computing kpt #:    58  of   101
     total cpu time spent up to now is      307.9 secs

     Computing kpt #:    59  of   101
     total cpu time spent up to now is      313.0 secs

     Computing kpt #:    60  of   101
     total cpu time spent up to now is      318.2 secs

     Computing kpt #:    61  of   101
     total cpu time spent up to now is      323.3 secs

     Computing kpt #:    62  of   101
     total cpu time spent up to now is      328.5 secs

     Computing kpt #:    63  of   101
     total cpu time spent up to now is      333.7 secs

     Computing kpt #:    64  of   101
     total cpu time spent up to now is      338.9 secs

     Computing kpt #:    65  of   101
     total cpu time spent up to now is      344.0 secs

     Computing kpt #:    66  of   101
     total cpu time spent up to now is      349.1 secs

     Computing kpt #:    67  of   101
     total cpu time spent up to now is      354.3 secs

     Computing kpt #:    68  of   101
     total cpu time spent up to now is      359.5 secs

     Computing kpt #:    69  of   101
     total cpu time spent up to now is      364.7 secs

     Computing kpt #:    70  of   101
     total cpu time spent up to now is      369.8 secs

     Computing kpt #:    71  of   101
     total cpu time spent up to now is      375.3 secs

     Computing kpt #:    72  of   101
     total cpu time spent up to now is      382.2 secs

     Computing kpt #:    73  of   101
     total cpu time spent up to now is      387.4 secs

     Computing kpt #:    74  of   101
     total cpu time spent up to now is      393.0 secs

     Computing kpt #:    75  of   101
     total cpu time spent up to now is      399.5 secs

     Computing kpt #:    76  of   101
     total cpu time spent up to now is      405.1 secs

     Computing kpt #:    77  of   101
     total cpu time spent up to now is      410.6 secs

     Computing kpt #:    78  of   101
     total cpu time spent up to now is      416.0 secs

     Computing kpt #:    79  of   101
     total cpu time spent up to now is      421.6 secs

     Computing kpt #:    80  of   101
     total cpu time spent up to now is      427.0 secs

     Computing kpt #:    81  of   101
     total cpu time spent up to now is      432.3 secs

     Computing kpt #:    82  of   101
     total cpu time spent up to now is      437.8 secs

     Computing kpt #:    83  of   101
     total cpu time spent up to now is      443.3 secs

     Computing kpt #:    84  of   101
     total cpu time spent up to now is      448.6 secs

     Computing kpt #:    85  of   101
     total cpu time spent up to now is      454.3 secs

     Computing kpt #:    86  of   101
     total cpu time spent up to now is      459.7 secs

     Computing kpt #:    87  of   101
     total cpu time spent up to now is      465.4 secs

     Computing kpt #:    88  of   101
     total cpu time spent up to now is      470.7 secs

     Computing kpt #:    89  of   101
     total cpu time spent up to now is      476.2 secs

     Computing kpt #:    90  of   101
     total cpu time spent up to now is      481.3 secs

     Computing kpt #:    91  of   101
     total cpu time spent up to now is      486.9 secs

     Computing kpt #:    92  of   101
     total cpu time spent up to now is      492.1 secs

     Computing kpt #:    93  of   101
     total cpu time spent up to now is      497.7 secs

     Computing kpt #:    94  of   101
     total cpu time spent up to now is      503.6 secs

     Computing kpt #:    95  of   101
     c_bands:  2 eigenvalues not converged
     total cpu time spent up to now is      510.5 secs

     Computing kpt #:    96  of   101
     total cpu time spent up to now is      516.4 secs

     Computing kpt #:    97  of   101
     total cpu time spent up to now is      521.9 secs

     Computing kpt #:    98  of   101
     total cpu time spent up to now is      527.2 secs

     Computing kpt #:    99  of   101
     total cpu time spent up to now is      532.2 secs

     Computing kpt #:   100  of   101
     total cpu time spent up to now is      537.5 secs

     Computing kpt #:   101  of   101
     total cpu time spent up to now is      542.7 secs

     ethr =  8.06E-12,  avg # of iterations = 60.8

     total cpu time spent up to now is      542.7 secs

     End of band structure calculation

          k = 0.0000 0.0000 0.0000 ( 17059 PWs)   bands (ev):

  -101.7053-101.7053-101.2887 -59.2323 -59.2322 -59.2281 -59.2280 -58.8351
   -58.8344 -58.8237 -58.6236 -58.6234 -30.6190 -15.9357 -15.9234 -11.0849
   -10.5965 -10.5927  -7.6585  -6.7872  -6.5916  -6.4752  -6.3372  -6.2274
    -1.3806  -1.1275  -0.8371  -0.8359  -0.8243  -0.8231   5.5348   5.7671
     5.7713   5.9211   6.0929   6.1038   6.9278   6.9873   7.4086   7.4090
     7.9117   8.0027   8.0340   8.0473   8.2303   8.2336   8.2486   8.2499
     8.2521   8.4174   8.5747   8.5854   8.6798   8.8752   8.9077   8.9184
     9.1721   9.2969   9.3162   9.4798   9.5477  10.1527  10.1540  12.6831
    13.4089  13.5755  13.7423  14.7986  15.3649  15.5691  15.5726  15.7046
    16.0973  16.4326  17.0984  17.1070  17.4993  17.8209  17.8431  17.8528
    18.7069  18.7556  18.9538  19.0656  19.4371  19.5739  19.5837  19.9691
    20.0357  20.0780  20.2496  20.3195  20.3232  20.5624

          k = 0.0250 0.0000 0.0000 ( 17067 PWs)   bands (ev):

  -101.7053-101.7053-101.2887 -59.2323 -59.2322 -59.2281 -59.2280 -58.8351
   -58.8344 -58.8237 -58.6236 -58.6234 -30.6189 -15.9351 -15.9227 -11.0837
   -10.6002 -10.5926  -7.6541  -6.7874  -6.5935  -6.4744  -6.3391  -6.2290
    -1.3804  -1.1277  -0.8364  -0.8359  -0.8231  -0.8231   5.5327   5.7678
     5.7690   5.9213   6.0863   6.1043   6.9260   6.9874   7.4049   7.4052
     7.8977   7.9886   8.0266   8.0318   8.1768   8.2505   8.2544   8.2647
     8.3072   8.4155   8.5722   8.5888   8.6794   8.8780   8.8860   8.9094
     9.1301   9.2991   9.3567   9.4973   9.5626  10.1497  10.1503  12.6930
    13.4203  13.5759  13.7538  14.8036  15.3785  15.5563  15.5734  15.7034
    16.1135  16.4367  17.0859  17.1054  17.5092  17.8288  17.8646  17.8649
    18.6945  18.7550  18.9457  19.0650  19.4475  19.5715  19.5765  19.9713
    20.0301  20.0746  20.2493  20.3195  20.3206  20.5582

          k = 0.0500 0.0000 0.0000 ( 17051 PWs)   bands (ev):

  -101.7053-101.7053-101.2887 -59.2323 -59.2322 -59.2281 -59.2280 -58.8351
   -58.8344 -58.8237 -58.6236 -58.6234 -30.6187 -15.9331 -15.9208 -11.0801
   -10.6111 -10.5923  -7.6412  -6.7881  -6.5993  -6.4719  -6.3448  -6.2336
    -1.3796  -1.1285  -0.8379  -0.8323  -0.8229  -0.8195   5.5263   5.7573
     5.7746   5.9207   6.0689   6.1061   6.9204   6.9871   7.3929   7.3950
     7.8601   7.9503   7.9773   8.0264   8.1448   8.2491   8.2585   8.3004
     8.3934   8.4103   8.5667   8.5987   8.6783   8.8073   8.8865   8.9139
     9.0530   9.3055   9.4295   9.5157   9.6244  10.1395  10.1409  12.7214
    13.4537  13.5780  13.7883  14.8167  15.4191  15.5158  15.5859  15.6999
    16.1578  16.4489  17.0524  17.1014  17.5363  17.8520  17.9001  17.9249
    18.6606  18.7532  18.9103  19.0745  19.4760  19.5391  19.5840  19.9779
    20.0137  20.0647  20.2465  20.3129  20.3196  20.5445

          k = 0.0750 0.0000 0.0000 ( 17040 PWs)   bands (ev):

  -101.7053-101.7053-101.2887 -59.2323 -59.2322 -59.2281 -59.2280 -58.8351
   -58.8344 -58.8237 -58.6236 -58.6234 -30.6183 -15.9298 -15.9176 -11.0741
   -10.6289 -10.5918  -7.6201  -6.7896  -6.6088  -6.4679  -6.3542  -6.2409
    -1.3783  -1.1297  -0.8402  -0.8264  -0.8226  -0.8135   5.5151   5.7393
     5.7839   5.9138   6.0482   6.1092   6.9108   6.9848   7.3733   7.3782
     7.8099   7.8952   7.9146   8.0205   8.1308   8.2396   8.2571   8.3404
     8.4050   8.4761   8.5624   8.6139   8.6765   8.7174   8.9005   8.9164
     8.9729   9.3167   9.5061   9.5231   9.7181  10.1227  10.1267  12.7647
    13.5055  13.5867  13.8455  14.8320  15.4695  15.4856  15.6058  15.6953
    16.2222  16.4683  17.0062  17.0965  17.5733  17.8899  17.9558  18.0144
    18.6130  18.7504  18.8356  19.1071  19.4957  19.5168  19.5950  19.9878
    19.9883  20.0489  20.2372  20.3005  20.3197  20.5220

          k = 0.1000 0.0000 0.0000 ( 17028 PWs)   bands (ev):

  -101.7053-101.7053-101.2887 -59.2323 -59.2322 -59.2281 -59.2281 -58.8351
   -58.8344 -58.8237 -58.6236 -58.6234 -30.6178 -15.9254 -15.9132 -11.0659
   -10.6527 -10.5911  -7.5915  -6.7921  -6.6221  -6.4624  -6.3670  -6.2502
    -1.3765  -1.1312  -0.8434  -0.8223  -0.8184  -0.8053   5.4980   5.7134
     5.7968   5.8921   6.0360   6.1135   6.8972   6.9790   7.3468   7.3551
     7.7584   7.8292   7.8454   8.0162   8.1268   8.2191   8.2413   8.3783
     8.4062   8.4984   8.5626   8.6325   8.6737   8.6853   8.8702   8.9200
     8.9424   9.3330   9.5280   9.5805   9.8180  10.1026  10.1078  12.8158
    13.5567  13.6228  13.9250  14.8395  15.4382  15.5763  15.6289  15.6940
    16.3013  16.4938  16.9543  17.0926  17.6117  17.9409  18.0282  18.1242
    18.5600  18.7265  18.7467  19.1616  19.4496  19.5641  19.6070  19.9550
    20.0019  20.0281  20.2191  20.2844  20.3198  20.4929

          k = 0.1250 0.0000 0.0000 ( 17022 PWs)   bands (ev):

  -101.7053-101.7053-101.2887 -59.2323 -59.2322 -59.2281 -59.2281 -58.8351
   -58.8344 -58.8237 -58.6236 -58.6235 -30.6172 -15.9198 -15.9077 -11.0556
   -10.6819 -10.5902  -7.5561  -6.7963  -6.6388  -6.4556  -6.3828  -6.2609
    -1.3742  -1.1328  -0.8472  -0.8220  -0.8083  -0.7951   5.4735   5.6793
     5.8134   5.8537   6.0379   6.1192   6.8793   6.9688   7.3144   7.3259
     7.7128   7.7563   7.7727   8.0134   8.1274   8.1871   8.2090   8.4116
     8.4161   8.4204   8.5678   8.6520   8.6701   8.7569   8.7896   8.9443
     8.9508   9.3545   9.5325   9.6505   9.9079  10.0851  10.0862  12.8646
    13.5899  13.7080  14.0260  14.8303  15.4391  15.6418  15.6887  15.7096
    16.3916  16.5244  16.9010  17.0914  17.6437  18.0033  18.1135  18.2475
    18.5085  18.5929  18.7423  19.2326  19.4071  19.6145  19.6149  19.9204
    20.0036  20.0164  20.1926  20.2666  20.3198  20.4605

          k = 0.1500 0.0000 0.0000 ( 17038 PWs)   bands (ev):

  -101.7053-101.7053-101.2887 -59.2323 -59.2322 -59.2281 -59.2281 -58.8351
   -58.8344 -58.8237 -58.6236 -58.6235 -30.6165 -15.9133 -15.9013 -11.0435
   -10.7152 -10.5892  -7.5150  -6.8027  -6.6585  -6.4480  -6.4010  -6.2722
    -1.3713  -1.1344  -0.8515  -0.8218  -0.7965  -0.7830   5.4399   5.6368
     5.8070   5.8334   6.0493   6.1263   6.8571   6.9547   7.2773   7.2911
     7.6766   7.6792   7.6979   8.0088   8.1290   8.1448   8.1671   8.3201
     8.4284   8.4398   8.5764   8.6651   8.6712   8.7165   8.8581   8.9642
     8.9728   9.3809   9.5369   9.7147   9.9605  10.0595  10.0977  12.8985
    13.6326  13.8199  14.1475  14.8046  15.4776  15.6372  15.7497  15.8189
    16.4904  16.5596  16.8486  17.0937  17.6653  18.0751  18.2073  18.3784
    18.4454  18.4641  18.7375  19.2976  19.3873  19.6094  19.6666  19.8927
    19.9770  20.0272  20.1607  20.2516  20.3198  20.4269

          k = 0.1750 0.0000 0.0000 ( 17050 PWs)   bands (ev):

  -101.7053-101.7053-101.2887 -59.2323 -59.2322 -59.2281 -59.2281 -58.8351
   -58.8344 -58.8237 -58.6236 -58.6235 -30.6157 -15.9060 -15.8941 -11.0297
   -10.7518 -10.5880  -7.4691  -6.8120  -6.6808  -6.4399  -6.4206  -6.2835
    -1.3680  -1.1357  -0.8563  -0.8218  -0.7831  -0.7694   5.3955   5.5862
     5.7603   5.8569   6.0649   6.1348   6.8309   6.9382   7.2370   7.2514
     7.5997   7.6222   7.6510   7.9955   8.0941   8.1250   8.1264   8.2263
     8.4308   8.4630   8.5841   8.6601   8.6690   8.6878   8.9652   8.9806
     9.0045   9.4115   9.5412   9.7722   9.9571  10.0320  10.1543  12.9064
    13.6989  13.9458  14.2880  14.7744  15.5468  15.6250  15.8047  15.9608
    16.5940  16.6000  16.8000  17.1003  17.6763  18.1540  18.2939  18.3054
    18.4215  18.5195  18.7327  19.2890  19.4518  19.5801  19.7203  19.8818
    19.9500  20.0255  20.1270  20.2487  20.3198  20.3929

          k = 0.2000 0.0000 0.0000 ( 17058 PWs)   bands (ev):

  -101.7053-101.7053-101.2887 -59.2323 -59.2322 -59.2281 -59.2281 -58.8351
   -58.8344 -58.8237 -58.6236 -58.6235 -30.6148 -15.8980 -15.8863 -11.0147
   -10.7905 -10.5868  -7.4195  -6.8247  -6.7051  -6.4411  -6.4318  -6.2939
    -1.3642  -1.1366  -0.8612  -0.8220  -0.7685  -0.7546   5.3399   5.5284
     5.7190   5.8836   6.0809   6.1450   6.8011   6.9218   7.1949   7.2074
     7.5191   7.5464   7.6353   7.9658   8.0369   8.0885   8.0952   8.1684
     8.4101   8.4818   8.5896   8.6541   8.6645   8.7024   9.0003   9.0381
     9.0729   9.4454   9.5453   9.8223   9.9308  10.0037  10.2232  12.8843
    13.7898  14.0765  14.4456  14.7565  15.6099  15.6359  15.8699  16.1029
    16.6487  16.6968  16.7617  17.1111  17.6810  18.1464  18.2376  18.3916
    18.4029  18.6552  18.7288  19.2497  19.5236  19.5500  19.7753  19.8903
    19.9247  20.0041  20.0955  20.2676  20.3196  20.3591

          k = 0.2250 0.0000 0.0000 ( 17070 PWs)   bands (ev):

  -101.7053-101.7053-101.2887 -59.2323 -59.2322 -59.2281 -59.2281 -58.8351
   -58.8344 -58.8237 -58.6236 -58.6235 -30.6139 -15.8896 -15.8780 -10.9986
   -10.8301 -10.5855  -7.3674  -6.8410  -6.7308  -6.4615  -6.4243  -6.3031
    -1.3601  -1.1369  -0.8663  -0.8226  -0.7530  -0.7388   5.2749   5.4647
     5.6849   5.9134   6.0949   6.1567   6.7686   6.9082   7.1521   7.1602
     7.4388   7.4711   7.6279   7.9210   7.9752   8.0262   8.0525   8.1583
     8.3729   8.4969   8.6031   8.6477   8.6904   8.7147   9.0238   9.0725
     9.1787   9.4814   9.5491   9.8646   9.8990   9.9754  10.2872  12.8350
    13.8980  14.1988  14.6180  14.7705  15.5937  15.7352  15.9434  16.2216
    16.7146  16.7464  16.7901  17.1260  17.6872  18.0103  18.3238  18.3659
    18.4945  18.7271  18.7867  19.2063  19.4455  19.6457  19.8243  19.9035
    19.9118  19.9711  20.0711  20.3080  20.3193  20.3267

          k = 0.2500 0.0000 0.0000 ( 17070 PWs)   bands (ev):

  -101.7053-101.7053-101.2887 -59.2323 -59.2322 -59.2281 -59.2281 -58.8351
   -58.8344 -58.8237 -58.6236 -58.6235 -30.6129 -15.8809 -15.8694 -10.9820
   -10.8698 -10.5841  -7.3137  -6.8609  -6.7573  -6.4814  -6.4176  -6.3104
    -1.3557  -1.1366  -0.8713  -0.8235  -0.7370  -0.7225   5.2037   5.3968
     5.6575   5.9460   6.1049   6.1702   6.7344   6.8999   7.1097   7.1106
     7.3596   7.3969   7.6261   7.8682   7.9109   7.9587   8.0069   8.1584
     8.3376   8.5089   8.6238   8.6409   8.7250   8.7322   9.0512   9.1067
     9.2806   9.5182   9.5529   9.8671   9.8988   9.9478  10.3424  12.7646
    14.0107  14.2997  14.8020  14.8353  15.5771  15.8370  16.0243  16.2831
    16.7662  16.8185  16.8629  17.1445  17.7002  17.8966  18.3424  18.4105
    18.5726  18.7310  18.9077  19.1621  19.3522  19.7229  19.8273  19.8892
    19.9387  19.9717  20.0601  20.2984  20.3117  20.3188

          k = 0.2750 0.0000 0.0000 ( 17064 PWs)   bands (ev):

  -101.7053-101.7053-101.2887 -59.2323 -59.2322 -59.2281 -59.2281 -58.8351
   -58.8344 -58.8237 -58.6235 -58.6235 -30.6120 -15.8722 -15.8609 -10.9651
   -10.9086 -10.5828  -7.2596  -6.8837  -6.7837  -6.5004  -6.4123  -6.3157
    -1.3511  -1.1356  -0.8761  -0.8247  -0.7208  -0.7061   5.1298   5.3270
     5.6357   5.9812   6.1098   6.1852   6.6996   6.8988   7.0598   7.0682
     7.2826   7.3245   7.6262   7.8127   7.8460   7.9034   7.9490   8.1601
     8.3119   8.5186   8.6341   8.6465   8.7337   8.7847   9.0825   9.1397
     9.3756   9.5546   9.5577   9.8374   9.9216   9.9248  10.3879  12.6794
    14.1099  14.3836  14.9548  14.9940  15.5608  15.9357  16.1113  16.2815
    16.8151  16.9055  16.9710  17.1660  17.6878  17.8509  18.3191  18.4958
    18.6264  18.7473  19.0125  19.1186  19.2484  19.7680  19.7680  19.8843
    19.9657  20.0234  20.0672  20.2799  20.2874  20.3180

          k = 0.3000 0.0000 0.0000 ( 17040 PWs)   bands (ev):

  -101.7053-101.7053-101.2887 -59.2323 -59.2322 -59.2281 -59.2281 -58.8351
   -58.8344 -58.8237 -58.6235 -58.6235 -30.6110 -15.8637 -15.8525 -10.9484
   -10.9455 -10.5815  -7.2063  -6.9086  -6.8094  -6.5184  -6.4088  -6.3189
    -1.3464  -1.1338  -0.8807  -0.8264  -0.7049  -0.6899   5.0567   5.2574
     5.6185   6.0187   6.1092   6.2018   6.6654   6.9057   7.0088   7.0284
     7.2086   7.2547   7.6238   7.7561   7.7824   7.8640   7.8837   8.1622
     8.2945   8.5263   8.6275   8.6686   8.7409   8.8452   9.1171   9.1708
     9.4574   9.5678   9.5897   9.8123   9.8973   9.9428  10.4237  12.5851
    14.1772  14.4750  15.1130  15.1896  15.5451  16.0269  16.2031  16.2435
    16.8806  16.9164  17.1552  17.1897  17.6123  17.9139  18.2956  18.5781
    18.6512  18.7778  19.0768  19.0966  19.1378  19.6877  19.7789  19.8908
    19.9888  20.0824  20.0846  20.2638  20.2807  20.3169

          k = 0.3250 0.0000 0.0000 ( 17026 PWs)   bands (ev):

  -101.7053-101.7053-101.2887 -59.2323 -59.2322 -59.2282 -59.2281 -58.8351
   -58.8344 -58.8237 -58.6235 -58.6235 -30.6102 -15.8555 -15.8445 -10.9799
   -10.9324 -10.5802  -7.1549  -6.9343  -6.8335  -6.5351  -6.4071  -6.3202
    -1.3418  -1.1314  -0.8850  -0.8284  -0.6896  -0.6744   4.9870   5.1903
     5.6049   6.0579   6.1037   6.2197   6.6329   6.9209   6.9586   6.9907
     7.1386   7.1881   7.6151   7.6982   7.7217   7.8178   7.8424   8.1644
     8.2824   8.5326   8.6211   8.6887   8.7469   8.9111   9.1539   9.1994
     9.5091   9.5959   9.6226   9.7951   9.8753   9.9533  10.4504  12.4869
    14.2115  14.5839  15.2907  15.3840  15.5306  16.1078  16.1913  16.2980
    16.9028  16.9570  17.2147  17.3484  17.5225  18.0289  18.2754  18.6557
    18.6588  18.8092  19.0234  19.0375  19.1550  19.6050  19.7676  19.9093
    20.0055  20.0879  20.1399  20.2427  20.3044  20.3152

          k = 0.3500 0.0000 0.0000 ( 17038 PWs)   bands (ev):

  -101.7053-101.7053-101.2887 -59.2323 -59.2322 -59.2282 -59.2281 -58.8351
   -58.8344 -58.8237 -58.6235 -58.6235 -30.6094 -15.8480 -15.8370 -11.0110
   -10.9174 -10.5790  -7.1067  -6.9596  -6.8554  -6.5504  -6.4073  -6.3200
    -1.3374  -1.1286  -0.8888  -0.8307  -0.6754  -0.6599   4.9229   5.1277
     5.5943   6.0943   6.0981   6.2386   6.6031   6.9101   6.9434   6.9558
     7.0735   7.1260   7.5998   7.6380   7.6656   7.7578   7.8368   8.1666
     8.2733   8.5376   8.6153   8.7064   8.7518   8.9799   9.1913   9.2250
     9.5261   9.6381   9.6525   9.7940   9.8558   9.9567  10.4689  12.3892
    14.2264  14.7004  15.4739  15.5174  15.5717  16.1362  16.1771  16.3939
    16.8749  17.0419  17.2399  17.4351  17.5289  18.1665  18.2680  18.6602
    18.7270  18.8312  18.9089  19.0018  19.1794  19.5345  19.7456  19.9386
    20.0148  20.0835  20.1859  20.2253  20.3127  20.3367

          k = 0.3750 0.0000 0.0000 ( 17048 PWs)   bands (ev):

  -101.7053-101.7053-101.2887 -59.2323 -59.2322 -59.2282 -59.2281 -58.8351
   -58.8344 -58.8237 -58.6236 -58.6235 -30.6086 -15.8412 -15.8304 -11.0383
   -10.9039 -10.5780  -7.0634  -6.9834  -6.8739  -6.5640  -6.4093  -6.3187
    -1.3334  -1.1255  -0.8922  -0.8331  -0.6627  -0.6469   4.8661   5.0715
     5.5862   6.0827   6.1386   6.2578   6.5769   6.8643   6.9245   6.9723
     7.0143   7.0697   7.5749   7.5809   7.6156   7.7076   7.8419   8.1688
     8.2662   8.5416   8.6101   8.7213   8.7559   9.0487   9.2272   9.2473
     9.5301   9.6622   9.6788   9.8186   9.8391   9.9542  10.4803  12.2965
    14.2324  14.8137  15.5059  15.6528  15.7463  16.0845  16.2343  16.4879
    16.8407  17.1335  17.2643  17.3527  17.6693  18.2926  18.3112  18.6596
    18.7796  18.8089  18.8422  18.9702  19.1605  19.4905  19.7198  19.9758
    20.0167  20.0771  20.2113  20.2247  20.3093  20.3591

          k = 0.4000 0.0000 0.0000 ( 17042 PWs)   bands (ev):

  -101.7053-101.7053-101.2887 -59.2323 -59.2322 -59.2282 -59.2281 -58.8351
   -58.8344 -58.8237 -58.6236 -58.6235 -30.6080 -15.8354 -15.8247 -11.0613
   -10.8922 -10.5771  -7.0268  -7.0044  -6.8880  -6.5757  -6.4126  -6.3168
    -1.3299  -1.1224  -0.8950  -0.8354  -0.6517  -0.6358   4.8179   5.0233
     5.5802   6.0706   6.1778   6.2767   6.5547   6.8220   6.8976   6.9623
     7.0060   7.0207   7.5107   7.5622   7.5728   7.6679   7.8523   8.1709
     8.2606   8.5447   8.6056   8.7334   8.7591   9.1146   9.2592   9.2659
     9.5305   9.6655   9.7009   9.8252   9.8613   9.9473  10.4858  12.2130
    14.2347  14.9162  15.4962  15.8198  15.8993  16.0420  16.2786  16.5764
    16.8056  17.2292  17.2770  17.2864  17.7435  18.3670  18.4506  18.6586
    18.6902  18.8445  18.8500  18.9434  19.1051  19.4716  19.6957  20.0131
    20.0166  20.0719  20.2060  20.2532  20.3048  20.3635

          k = 0.4250 0.0000 0.0000 ( 17038 PWs)   bands (ev):

  -101.7053-101.7053-101.2887 -59.2323 -59.2322 -59.2282 -59.2281 -58.8351
   -58.8344 -58.8237 -58.6236 -58.6235 -30.6075 -15.8308 -15.8201 -11.0796
   -10.8827 -10.5764  -7.0218  -6.9994  -6.8963  -6.5852  -6.4166  -6.3149
    -1.3271  -1.1196  -0.8973  -0.8375  -0.6428  -0.6267   4.7794   4.9844
     5.5761   6.0595   6.2138   6.2940   6.5371   6.7844   6.8758   6.9190
     6.9806   7.0428   7.4487   7.5383   7.5459   7.6380   7.8638   8.1728
     8.2564   8.5470   8.6020   8.7428   8.7615   9.1745   9.2807   9.2847
     9.5296   9.6612   9.7186   9.8143   9.9052   9.9379  10.4872  12.1427
    14.2354  15.0026  15.4884  15.9688  15.9805  16.0546  16.3084  16.6546
    16.7733  17.2106  17.3053  17.3250  17.7551  18.4779  18.5733  18.5995
    18.6578  18.8415  18.8951  18.9214  19.0369  19.4614  19.6776  20.0062
    20.0565  20.0674  20.2074  20.2751  20.2989  20.3540

          k = 0.4500 0.0000 0.0000 ( 17050 PWs)   bands (ev):

  -101.7053-101.7053-101.2887 -59.2323 -59.2322 -59.2282 -59.2281 -58.8351
   -58.8344 -58.8237 -58.6236 -58.6235 -30.6072 -15.8273 -15.8168 -11.0928
   -10.8757 -10.5759  -7.0348  -6.9827  -6.8981  -6.5921  -6.4204  -6.3132
    -1.3250  -1.1173  -0.8989  -0.8392  -0.6363  -0.6201   4.7513   4.9559
     5.5734   6.0506   6.2439   6.3081   6.5244   6.7538   6.8597   6.8861
     6.9509   7.0796   7.3932   7.5131   7.5337   7.6171   7.8735   8.1743
     8.2535   8.5486   8.5994   8.7495   8.7633   9.2251   9.2913   9.3010
     9.5284   9.6559   9.7314   9.8065   9.9284   9.9410  10.4861  12.0893
    14.2355  15.0682  15.4829  15.9632  16.0945  16.1441  16.3202  16.7170
    16.7471  17.1574  17.3197  17.4155  17.7302  18.5276  18.5865  18.6572
    18.6695  18.8366  18.9042  18.9290  18.9789  19.4496  19.6679  19.9987
    20.0617  20.0910  20.2142  20.2902  20.2923  20.3400

          k = 0.4750 0.0000 0.0000 ( 17050 PWs)   bands (ev):

  -101.7053-101.7053-101.2887 -59.2322 -59.2322 -59.2282 -59.2281 -58.8351
   -58.8344 -58.8237 -58.6236 -58.6235 -30.6069 -15.8253 -15.8147 -11.1009
   -10.8714 -10.5756  -7.0428  -6.9754  -6.8960  -6.5964  -6.4232  -6.3121
    -1.3237  -1.1159  -0.8999  -0.8403  -0.6323  -0.6160   4.7343   4.9385
     5.5719   6.0448   6.2643   6.3175   6.5167   6.7331   6.8498   6.8653
     6.9328   7.1106   7.3507   7.4977   7.5261   7.6046   7.8800   8.1752
     8.2517   8.5496   8.5978   8.7535   8.7643   9.2630   9.2978   9.3059
     9.5275   9.6522   9.7391   9.8018   9.9213   9.9642  10.4844  12.0558
    14.2355  15.1093  15.4795  15.9475  16.1924  16.2057  16.3097  16.7299
    16.7577  17.1225  17.3288  17.4915  17.6913  18.4810  18.6570  18.6588
    18.7315  18.8324  18.8920  18.9465  18.9501  19.4368  19.6654  19.9931
    20.0556  20.1152  20.2222  20.2864  20.2989  20.3293

          k = 0.5000 0.0000 0.0000 ( 17046 PWs)   bands (ev):

  -101.7053-101.7053-101.2887 -59.2322 -59.2322 -59.2282 -59.2281 -58.8351
   -58.8344 -58.8237 -58.6236 -58.6235 -30.6069 -15.8245 -15.8140 -11.1036
   -10.8700 -10.5755  -7.0455  -6.9735  -6.8946  -6.5978  -6.4242  -6.3117
    -1.3232  -1.1154  -0.9002  -0.8407  -0.6310  -0.6146   4.7286   4.9326
     5.5714   6.0429   6.2716   6.3208   6.5141   6.7257   6.8464   6.8582
     6.9267   7.1238   7.3336   7.4925   7.5235   7.6005   7.8823   8.1756
     8.2512   8.5499   8.5973   8.7548   8.7646   9.2803   9.2999   9.3034
     9.5272   9.6508   9.7418   9.8003   9.9187   9.9722  10.4837  12.0445
    14.2355  15.1233  15.4783  15.9420  16.2270  16.2463  16.2860  16.7239
    16.7719  17.1102  17.3319  17.5277  17.6674  18.4648  18.6569  18.6820
    18.7533  18.8308  18.8872  18.9387  18.9572  19.4308  19.6654  19.9911
    20.0527  20.1240  20.2257  20.2839  20.3018  20.3255

          k = 0.5000 0.0250 0.0000 ( 17050 PWs)   bands (ev):

  -101.7053-101.7053-101.2887 -59.2323 -59.2322 -59.2282 -59.2281 -58.8351
   -58.8344 -58.8237 -58.6236 -58.6235 -30.6068 -15.8240 -15.8135 -11.1033
   -10.8689 -10.5790  -7.0437  -6.9719  -6.8901  -6.5967  -6.4232  -6.3141
    -1.3230  -1.1156  -0.9046  -0.8453  -0.6381  -0.6214   4.7230   4.9307
     5.5712   6.0493   6.2639   6.3062   6.5267   6.6988   6.8137   6.8636
     6.9193   7.1261   7.3771   7.4997   7.5214   7.6075   7.8911   8.1842
     8.2535   8.5406   8.5968   8.7246   8.7826   9.2834   9.3017   9.3045
     9.5372   9.6539   9.7396   9.8032   9.9513   9.9714  10.5009  12.0482
    14.2238  15.1286  15.4512  15.9397  16.2362  16.2537  16.3141  16.6773
    16.7235  17.2027  17.2898  17.5668  17.6656  18.4631  18.5758  18.6284
    18.7572  18.8902  18.9337  18.9361  18.9415  19.4546  19.6674  19.9838
    20.0690  20.0998  20.2474  20.2808  20.3031  20.3292

          k = 0.5000 0.0500 0.0000 ( 17058 PWs)   bands (ev):

  -101.7053-101.7053-101.2887 -59.2323 -59.2322 -59.2282 -59.2281 -58.8351
   -58.8344 -58.8237 -58.6236 -58.6235 -30.6066 -15.8225 -15.8120 -11.1025
   -10.8657 -10.5895  -7.0385  -6.9669  -6.8770  -6.5935  -6.4203  -6.3213
    -1.3225  -1.1162  -0.9177  -0.8591  -0.6590  -0.6413   4.7062   4.9251
     5.5708   6.0681   6.2446   6.2647   6.5604   6.6343   6.7105   6.8862
     6.9133   7.1313   7.4749   7.5151   7.5208   7.6305   7.9111   8.2099
     8.2600   8.5195   8.5954   8.6791   8.7979   9.2914   9.3070   9.3078
     9.5630   9.6630   9.7334   9.8118   9.9688  10.0434  10.5525  12.0595
    14.1891  15.1445  15.3799  15.9328  16.2640  16.2745  16.3862  16.5071
    16.7240  17.2091  17.3662  17.6350  17.6603  18.4165  18.4583  18.5574
    18.7704  18.8782  18.8992  18.9498  19.0835  19.5149  19.6731  19.9634
    20.0515  20.1133  20.2725  20.2885  20.3062  20.3389

          k = 0.5000 0.0750 0.0000 ( 17062 PWs)   bands (ev):

  -101.7053-101.7053-101.2887 -59.2323 -59.2322 -59.2282 -59.2281 -58.8351
   -58.8344 -58.8237 -58.6236 -58.6236 -30.6062 -15.8200 -15.8095 -11.1012
   -10.8603 -10.6064  -7.0299  -6.9588  -6.8556  -6.5882  -6.4155  -6.3330
    -1.3218  -1.1172  -0.9391  -0.8817  -0.6930  -0.6736   4.6779   4.9153
     5.5702   6.0981   6.2024   6.2196   6.5453   6.5851   6.6085   6.8709
     6.9482   7.1352   7.5047   7.5549   7.5786   7.6813   7.9256   8.2521
     8.2697   8.5044   8.5932   8.6315   8.8117   9.3024   9.3133   9.3157
     9.5964   9.6781   9.7234   9.8247   9.9646  10.1818  10.6374  12.0777
    14.1327  15.1703  15.2825  15.9215  16.2763  16.3102  16.3619  16.4743
    16.7339  17.1231  17.5280  17.6517  17.6880  18.2503  18.4506  18.4759
    18.7968  18.7978  18.9140  18.9634  19.2342  19.5917  19.6824  19.9334
    19.9960  20.1753  20.2602  20.3107  20.3333  20.3514

          k = 0.5000 0.1000 0.0000 ( 17056 PWs)   bands (ev):

  -101.7053-101.7053-101.2887 -59.2323 -59.2322 -59.2282 -59.2281 -58.8351
   -58.8344 -58.8237 -58.6236 -58.6236 -30.6057 -15.8166 -15.8061 -11.0994
   -10.8530 -10.6293  -7.0181  -6.9476  -6.8266  -6.5810  -6.4090  -6.3491
    -1.3209  -1.1186  -0.9683  -0.9125  -0.7385  -0.7171   4.6379   4.9008
     5.5698   6.1267   6.1373   6.1931   6.4382   6.4532   6.6658   6.8535
     6.9917   7.1338   7.4904   7.6002   7.6509   7.7812   7.9172   8.2806
     8.3100   8.5140   8.5901   8.5923   8.8272   9.3157   9.3206   9.3277
     9.6305   9.6991   9.7102   9.8406   9.9588  10.3527  10.7522  12.1023
    14.0564  15.1719  15.2049  15.9058  16.1283  16.3746  16.3872  16.5397
    16.7765  17.0405  17.6401  17.6662  17.6984  18.0814  18.4176  18.4402
    18.7071  18.8459  18.9343  18.9821  19.3812  19.6709  19.6945  19.8983
    19.9374  20.2447  20.2450  20.3164  20.3634  20.3793

          k = 0.5000 0.1250 0.0000 ( 17066 PWs)   bands (ev):

  -101.7053-101.7053-101.2887 -59.2323 -59.2322 -59.2282 -59.2281 -58.8351
   -58.8344 -58.8237 -58.6236 -58.6236 -30.6051 -15.8123 -15.8018 -11.0972
   -10.8438 -10.6574  -7.0033  -6.9336  -6.7910  -6.5721  -6.4009  -6.3692
    -1.3200  -1.1205  -1.0045  -0.9506  -0.7939  -0.7700   4.5860   4.8810
     5.5697   6.0445   6.1668   6.1818   6.3200   6.3235   6.7290   6.8416
     7.0369   7.1244   7.4725   7.6548   7.7076   7.8797   7.9073   8.2901
     8.3822   8.5554   8.5690   8.5865   8.8457   9.3295   9.3315   9.3425
     9.6621   9.6946   9.7257   9.8581   9.9515  10.5446  10.8914  12.1325
    13.9630  15.0551  15.2463  15.8863  15.9633  16.4563  16.4567  16.5556
    16.8681  16.9643  17.6259  17.6504  17.7692  17.9119  18.4047  18.4270
    18.6234  18.9200  18.9595  19.0055  19.5222  19.7074  19.7449  19.8635
    19.8781  20.2282  20.3134  20.3235  20.3723  20.4275

          k = 0.5000 0.1500 0.0000 ( 17078 PWs)   bands (ev):

  -101.7053-101.7053-101.2887 -59.2323 -59.2322 -59.2282 -59.2281 -58.8351
   -58.8344 -58.8237 -58.6236 -58.6236 -30.6044 -15.8073 -15.7968 -11.0946
   -10.8330 -10.6895  -6.9857  -6.9169  -6.7500  -6.5616  -6.3928  -6.3914
    -1.3194  -1.1230  -1.0467  -0.9949  -0.8569  -0.8303   4.5224   4.8548
     5.5699   5.9618   6.1415   6.1743   6.1978   6.2537   6.7954   6.8355
     7.0826   7.1065   7.4515   7.7165   7.7665   7.8202   8.0374   8.2962
     8.4672   8.5650   8.5824   8.6223   8.8684   9.3395   9.3500   9.3601
     9.6773   9.6905   9.7575   9.8767   9.9428  10.7490  11.0485  12.1672
    13.8559  14.9350  15.2903  15.8125  15.8632  16.5364  16.5447  16.5522
    16.8967  16.9863  17.5545  17.6091  17.7431  17.8334  18.4119  18.4315
    18.5579  18.9893  19.0182  19.0330  19.6509  19.7167  19.8109  19.8236
    19.8380  20.2115  20.3318  20.3758  20.3769  20.4800

          k = 0.5000 0.1750 0.0000 ( 17106 PWs)   bands (ev):

  -101.7053-101.7053-101.2887 -59.2323 -59.2322 -59.2282 -59.2281 -58.8351
   -58.8344 -58.8237 -58.6236 -58.6236 -30.6036 -15.8017 -15.7912 -11.0917
   -10.8208 -10.7249  -6.9658  -6.8979  -6.7046  -6.5499  -6.4194  -6.3808
    -1.3194  -1.1267  -1.0939  -1.0445  -0.9253  -0.8954   4.4478   4.8213
     5.5707   5.8832   6.0574   6.0779   6.1177   6.3012   6.8346   6.8630
     7.0806   7.1276   7.4282   7.7490   7.7831   7.8306   8.1650   8.2988
     8.5629   8.5784   8.5785   8.7045   8.8961   9.3499   9.3716   9.3799
     9.6592   9.7158   9.7940   9.8967   9.9327  10.9592  11.2168  12.2057
    13.7388  14.8128  15.3264  15.6879  15.8372  16.4973  16.6461  16.6492
    16.8505  17.1094  17.4369  17.5665  17.6002  17.8640  18.4002  18.4767
    18.5166  19.0230  19.0641  19.1269  19.7143  19.7190  19.8250  19.8330
    19.8683  20.1969  20.3415  20.3772  20.4270  20.5401

          k = 0.5000 0.2000 0.0000 ( 17094 PWs)   bands (ev):

  -101.7053-101.7053-101.2887 -59.2323 -59.2322 -59.2282 -59.2281 -58.8351
   -58.8344 -58.8237 -58.6236 -58.6236 -30.6027 -15.7956 -15.7851 -11.0885
   -10.8074 -10.7624  -6.9438  -6.8770  -6.6563  -6.5372  -6.4483  -6.3694
    -1.3203  -1.1448  -1.1329  -1.0980  -0.9967  -0.9619   4.3639   4.7795
     5.5715   5.8121   5.9391   5.9654   6.0953   6.3572   6.8382   6.9295
     7.0486   7.1707   7.4035   7.6738   7.8528   7.8997   8.2864   8.2997
     8.5757   8.6044   8.6673   8.7944   8.9298   9.3599   9.3962   9.4017
     9.6416   9.7376   9.8345   9.9191   9.9213  11.1696  11.3906  12.2471
    13.6155  14.6889  15.3275  15.6161  15.8089  16.4434  16.6657  16.7692
    16.8912  17.2272  17.3218  17.4073  17.5756  17.8717  18.4040  18.4973
    18.5229  19.0599  19.0978  19.2201  19.6712  19.7289  19.8495  19.9180
    19.9212  20.1858  20.3523  20.3739  20.4614  20.5861

          k = 0.5000 0.2250 0.0000 ( 17090 PWs)   bands (ev):

  -101.7053-101.7053-101.2887 -59.2323 -59.2322 -59.2282 -59.2281 -58.8351
   -58.8344 -58.8236 -58.6236 -58.6236 -30.6018 -15.7891 -15.7787 -11.0852
   -10.8010 -10.7931  -6.9203  -6.8545  -6.6062  -6.5239  -6.4789  -6.3574
    -1.3229  -1.1982  -1.1540  -1.1458  -1.0683  -1.0236   4.2727   4.7289
     5.5716   5.7508   5.8270   5.8642   6.0745   6.4133   6.8457   6.9928
     7.0124   7.2109   7.3787   7.5996   7.9238   7.9723   8.3005   8.3969
     8.5779   8.6366   8.7778   8.8872   8.9704   9.3685   9.4237   9.4252
     9.6254   9.7557   9.8781   9.9088   9.9445  11.3759  11.5650  12.2908
    13.4898  14.5634  15.2689  15.6195  15.7794  16.3773  16.5975  16.9032
    17.0220  17.2294  17.2463  17.3346  17.5561  17.8683  18.4273  18.5018
    18.5599  19.0992  19.1330  19.2657  19.6132  19.7753  19.8798  19.9616
    20.0180  20.1793  20.3640  20.3677  20.4715  20.5831

          k = 0.5000 0.2500 0.0000 ( 17088 PWs)   bands (ev):

  -101.7053-101.7053-101.2887 -59.2323 -59.2322 -59.2282 -59.2281 -58.8351
   -58.8344 -58.8236 -58.6236 -58.6236 -30.6009 -15.7825 -15.7721 -11.0818
   -10.8397 -10.7783  -6.8957  -6.8310  -6.5558  -6.5104  -6.5103  -6.3452
    -1.3286  -1.2527  -1.2111  -1.1758  -1.1368  -1.0681   4.1771   4.6699
     5.5692   5.7015   5.7227   5.7769   6.0553   6.4673   6.8563   6.9741
     7.0504   7.2465   7.3558   7.5296   7.9943   8.0466   8.3024   8.4808
     8.6000   8.6698   8.8921   8.9797   9.0185   9.3745   9.4499   9.4534
     9.6116   9.7695   9.8952   9.9237   9.9734  11.5741  11.7359  12.3364
    13.3653  14.4369  15.1778  15.6688  15.7494  16.3017  16.4951  17.0483
    17.0899  17.1333  17.2201  17.4308  17.5370  17.8647  18.4446  18.5568
    18.5831  19.1401  19.1684  19.2542  19.5551  19.8580  19.9247  20.0010
    20.0999  20.1775  20.3595  20.3763  20.4493  20.5777

          k = 0.5000 0.2750 0.0000 ( 17088 PWs)   bands (ev):

  -101.7053-101.7053-101.2887 -59.2323 -59.2322 -59.2282 -59.2281 -58.8351
   -58.8343 -58.8236 -58.6236 -58.6236 -30.6000 -15.7759 -15.7655 -11.0784
   -10.8775 -10.7633  -6.8706  -6.8070  -6.5420  -6.5061  -6.4968  -6.3332
    -1.3405  -1.3070  -1.2681  -1.2273  -1.1975  -1.0893   4.0800   4.6039
     5.5613   5.6269   5.6671   5.7042   6.0377   6.5179   6.8695   6.9353
     7.0990   7.2750   7.3376   7.4674   8.0625   8.1207   8.3061   8.5131
     8.6662   8.7005   9.0075   9.0700   9.0738   9.3770   9.4756   9.4845
     9.6012   9.7791   9.8806   9.9701  10.0055  11.7609  11.8999  12.3833
    13.2456  14.3097  15.0802  15.7201  15.7351  16.2200  16.3742  16.9397
    17.1163  17.1986  17.3878  17.5179  17.5185  17.8721  18.4482  18.5921
    18.6659  19.1819  19.2018  19.2036  19.5004  19.9266  20.0102  20.0378
    20.1656  20.1796  20.3493  20.3889  20.3946  20.5690

          k = 0.5000 0.3000 0.0000 ( 17100 PWs)   bands (ev):

  -101.7053-101.7053-101.2887 -59.2323 -59.2322 -59.2282 -59.2281 -58.8351
   -58.8343 -58.8236 -58.6236 -58.6236 -30.5990 -15.7694 -15.7590 -11.0750
   -10.9137 -10.7485  -6.8456  -6.7830  -6.5731  -6.4837  -6.4584  -6.3216
    -1.3643  -1.3599  -1.3234  -1.2880  -1.2429  -1.0978   3.9845   4.5334
     5.5402   5.5454   5.6458   5.6488   6.0218   6.5643   6.8847   6.8976
     7.1338   7.2900   7.3288   7.4197   8.1258   8.1925   8.3130   8.5176
     8.7268   8.7525   9.1213   9.1350   9.1566   9.3756   9.5020   9.5157
     9.5945   9.7845   9.8652  10.0160  10.0397  11.9335  12.0543  12.4312
    13.1337  14.1832  14.9842  15.6927  15.8078  16.1363  16.2448  16.7969
    17.1117  17.3437  17.5010  17.5775  17.5993  17.9029  18.4484  18.5920
    18.8117  19.1324  19.2242  19.2297  19.4530  19.9715  20.0726  20.1231
    20.1843  20.2171  20.3172  20.3369  20.4013  20.5564

          k = 0.5000 0.3250 0.0000 ( 17088 PWs)   bands (ev):

  -101.7053-101.7053-101.2887 -59.2323 -59.2322 -59.2282 -59.2281 -58.8351
   -58.8343 -58.8236 -58.6237 -58.6236 -30.5982 -15.7632 -15.7528 -11.0719
   -10.9474 -10.7343  -6.8214  -6.7596  -6.6027  -6.4714  -6.4137  -6.3108
    -1.4100  -1.4024  -1.3759  -1.3484  -1.2692  -1.1015   3.8935   4.4617
     5.4630   5.5246   5.6001   5.6427   6.0076   6.6057   6.8620   6.9015
     7.1504   7.2795   7.3340   7.3988   8.1803   8.2603   8.3259   8.5151
     8.7479   8.8375   9.1996   9.2309   9.2383   9.3708   9.5287   9.5455
     9.5908   9.7861   9.8488  10.0600  10.0747  12.0897  12.1964  12.4796
    13.0328  14.0587  14.8919  15.6682  15.8823  16.0545  16.1155  16.6630
    17.1275  17.4687  17.4848  17.6779  17.7618  17.9701  18.4478  18.5955
    18.9826  19.0535  19.2455  19.2675  19.4194  20.0108  20.1044  20.1907
    20.2285  20.2315  20.2573  20.3215  20.4130  20.5389

          k = 0.5000 0.3500 0.0000 ( 17102 PWs)   bands (ev):

  -101.7053-101.7053-101.2887 -59.2323 -59.2323 -59.2282 -59.2281 -58.8351
   -58.8343 -58.8236 -58.6237 -58.6236 -30.5974 -15.7574 -15.7471 -11.0690
   -10.9779 -10.7211  -6.7986  -6.7376  -6.6302  -6.4601  -6.3729  -6.3010
    -1.4561  -1.4473  -1.4242  -1.4048  -1.2828  -1.1032   3.8096   4.3922
     5.3958   5.5036   5.5651   5.6429   5.9951   6.6419   6.8296   6.9193
     7.1507   7.2465   7.3514   7.4017   8.2203   8.3224   8.3492   8.5107
     8.7641   8.9153   9.2652   9.3143   9.3335   9.3639   9.5555   9.5722
     9.5892   9.7840   9.8315  10.1007  10.1090  12.2276  12.3243  12.5277
    12.9452  13.9383  14.8046  15.6476  15.9556  15.9779  15.9926  16.5394
    17.1599  17.4701  17.5643  17.7547  17.9140  18.0740  18.4464  18.6273
    18.9803  19.1630  19.2418  19.3197  19.4072  20.0468  20.1308  20.1376
    20.1983  20.2888  20.3012  20.3247  20.4227  20.5165

          k = 0.5000 0.3750 0.0000 ( 17118 PWs)   bands (ev):

  -101.7053-101.7053-101.2887 -59.2323 -59.2323 -59.2282 -59.2281 -58.8351
   -58.8343 -58.8236 -58.6237 -58.6236 -30.5967 -15.7523 -15.7420 -11.0664
   -11.0048 -10.7091  -6.7778  -6.7175  -6.6549  -6.4503  -6.3370  -6.2924
    -1.4972  -1.4910  -1.4672  -1.4549  -1.2904  -1.1039   3.7350   4.3281
     5.3386   5.4849   5.5388   5.6458   5.9845   6.6726   6.8010   6.9377
     7.1418   7.2075   7.3743   7.4122   8.2437   8.3773   8.3836   8.5061
     8.7759   8.9834   9.3292   9.3570   9.3838   9.4263   9.5823   9.5882
     9.5938   9.7785   9.8135  10.1371  10.1412  12.3462  12.4360  12.5743
    12.8726  13.8250  14.7234  15.6318  15.8812  15.9095  16.0255  16.4279
    17.2052  17.4574  17.6377  17.8291  18.0008  18.1861  18.4440  18.7191
    18.9352  19.2210  19.2895  19.4139  19.4348  20.0534  20.0785  20.1473
    20.2078  20.2737  20.3136  20.3975  20.4276  20.4918

          k = 0.5000 0.4000 0.0000 ( 17118 PWs)   bands (ev):

  -101.7053-101.7053-101.2887 -59.2323 -59.2323 -59.2282 -59.2281 -58.8351
   -58.8343 -58.8236 -58.6237 -58.6236 -30.5960 -15.7479 -15.7376 -11.0641
   -11.0274 -10.6988  -6.7596  -6.7000  -6.6760  -6.4419  -6.3066  -6.2852
    -1.5322  -1.5294  -1.5038  -1.4974  -1.2953  -1.1041   3.6715   4.2721
     5.2918   5.4695   5.5195   5.6495   5.9757   6.6977   6.7768   6.9565
     7.1299   7.1701   7.3970   7.4227   8.2556   8.4227   8.4238   8.5019
     8.7839   9.0399   9.3520   9.3893   9.4459   9.5068   9.5867   9.6086
     9.6086   9.7698   9.7946  10.1680  10.1697  12.4447  12.5298  12.6175
    12.8157  13.7222  14.6505  15.6211  15.7850  15.8513  16.0890  16.3305
    17.2595  17.4467  17.7030  17.8992  18.0159  18.2554  18.4401  18.8751
    18.9538  19.1943  19.3384  19.4286  19.6194  19.9915  20.1028  20.1478
    20.2197  20.2360  20.3329  20.4187  20.4484  20.4748

          k = 0.5000 0.4250 0.0000 ( 17120 PWs)   bands (ev):

  -101.7053-101.7053-101.2887 -59.2323 -59.2323 -59.2281 -59.2281 -58.8351
   -58.8343 -58.8236 -58.6237 -58.6236 -30.5956 -15.7444 -15.7341 -11.0623
   -11.0454 -10.6904  -6.7448  -6.6931  -6.6856  -6.4353  -6.2823  -6.2795
    -1.5604  -1.5604  -1.5333  -1.5313  -1.2987  -1.1040   3.6206   4.2263
     5.2553   5.4576   5.5058   5.6531   5.9688   6.7173   6.7576   6.9753
     7.1185   7.1365   7.4162   7.4313   8.2616   8.4592   8.4608   8.4985
     8.7887   9.0831   9.3505   9.4438   9.4997   9.5725   9.5844   9.6154
     9.6343   9.7582   9.7750  10.1928  10.1933  12.5232  12.6043  12.6553
    12.7735  13.6342  14.5887  15.6152  15.7070  15.8048  16.1432  16.2497
    17.3184  17.4383  17.7700  17.9616  17.9862  18.2502  18.4349  19.0539
    19.0642  19.1692  19.3679  19.4440  19.7516  20.0114  20.1083  20.1275
    20.1934  20.2313  20.3474  20.3943  20.4723  20.4791

          k = 0.5000 0.4500 0.0000 ( 17112 PWs)   bands (ev):

  -101.7053-101.7053-101.2887 -59.2323 -59.2323 -59.2281 -59.2281 -58.8351
   -58.8343 -58.8236 -58.6237 -58.6236 -30.5952 -15.7418 -15.7315 -11.0610
   -11.0585 -10.6842  -6.7338  -6.7056  -6.6750  -6.4306  -6.2755  -6.2647
    -1.5832  -1.5810  -1.5561  -1.5549  -1.3010  -1.1039   3.5835   4.1925
     5.2292   5.4492   5.4968   5.6561   5.9638   6.7312   6.7436   6.9937
     7.1075   7.1094   7.4306   7.4375   8.2647   8.4858   8.4883   8.4980
     8.7912   9.1122   9.3526   9.4909   9.5436   9.5815   9.6136   9.6215
     9.6585   9.7448   9.7551  10.2107  10.2111  12.5818  12.6585  12.6850
    12.7439  13.5660  14.5411  15.6131  15.6495  15.7710  16.1850  16.1884
    17.3753  17.4322  17.8433  17.9400  18.0121  18.1902  18.4291  19.1496
    19.2013  19.2516  19.3886  19.4565  19.7601  20.0618  20.0835  20.1627
    20.1771  20.2400  20.3576  20.3709  20.4749  20.4945

          k = 0.5000 0.4750 0.0000 ( 17114 PWs)   bands (ev):

  -101.7053-101.7053-101.2887 -59.2323 -59.2323 -59.2281 -59.2281 -58.8351
   -58.8343 -58.8236 -58.6237 -58.6236 -30.5950 -15.7402 -15.7299 -11.0665
   -11.0602 -10.6805  -6.7271  -6.7133  -6.6684  -6.4277  -6.2730  -6.2540
    -1.5970  -1.5935  -1.5711  -1.5680  -1.3023  -1.1038   3.5609   4.1718
     5.2135   5.4442   5.4916   5.6580   5.9609   6.7351   6.7395   7.0100
     7.0849   7.1036   7.4395   7.4411   8.2662   8.4914   8.5070   8.5073
     8.7922   9.1284   9.3561   9.5277   9.5742   9.5789   9.6045   9.6529
     9.6790   9.7327   9.7360  10.2216  10.2220  12.6204  12.6913  12.7040
    12.7244  13.5225  14.5110  15.6131  15.6144  15.7505  16.1497  16.2113
    17.4198  17.4285  17.8988  17.9237  18.0455  18.1068  18.4241  19.1372
    19.3412  19.4015  19.4023  19.4644  19.7390  19.9839  20.0261  20.1799
    20.2450  20.3224  20.3573  20.3637  20.4774  20.5008

          k = 0.5000 0.5000 0.0000 ( 17104 PWs)   bands (ev):

  -101.7053-101.7053-101.2887 -59.2323 -59.2323 -59.2281 -59.2281 -58.8351
   -58.8343 -58.8236 -58.6237 -58.6236 -30.5949 -15.7397 -15.7294 -11.0691
   -11.0600 -10.6792  -6.7248  -6.7159  -6.6662  -6.4267  -6.2722  -6.2504
    -1.6017  -1.5978  -1.5761  -1.5724  -1.3028  -1.1037   3.5533   4.1648
     5.2083   5.4426   5.4899   5.6586   5.9599   6.7322   6.7423   7.0180
     7.0749   7.1016   7.4423   7.4425   8.2667   8.4913   8.5124   8.5135
     8.7924   9.1335   9.3577   9.5445   9.5778   9.5858   9.5970   9.6642
     9.6894   9.7253   9.7273  10.2253  10.2257  12.6350  12.7023  12.7106
    12.7165  13.5075  14.5007  15.6025  15.6134  15.7436  16.1365  16.2204
    17.4273  17.4373  17.8819  17.9945  18.0335  18.0573  18.4221  19.1330
    19.4045  19.4059  19.4652  19.4672  19.7298  19.9421  19.9953  20.1819
    20.2465  20.3532  20.3657  20.3919  20.4784  20.5023

          k = 0.4750 0.5000 0.0000 ( 17114 PWs)   bands (ev):

  -101.7053-101.7053-101.2887 -59.2323 -59.2323 -59.2281 -59.2281 -58.8351
   -58.8343 -58.8236 -58.6237 -58.6236 -30.5950 -15.7402 -15.7299 -11.0694
   -11.0574 -10.6804  -6.7222  -6.7181  -6.6684  -6.4277  -6.2756  -6.2512
    -1.5974  -1.5932  -1.5717  -1.5674  -1.3023  -1.1037   3.5608   4.1716
     5.2134   5.4442   5.4917   5.6580   5.9609   6.7296   6.7451   7.0118
     7.0769   7.1099   7.4394   7.4412   8.2662   8.4914   8.5059   8.5084
     8.7921   9.1280   9.3567   9.5243   9.5736   9.5888   9.5977   9.6532
     9.6795   9.7313   9.7373  10.2216  10.2221  12.6222  12.6915  12.7098
    12.7170  13.5224  14.5110  15.6022  15.6253  15.7505  16.1498  16.2111
    17.4099  17.4385  17.8980  17.9283  18.0223  18.1258  18.4240  19.1373
    19.3427  19.4001  19.4051  19.4624  19.7391  19.9839  20.0261  20.1798
    20.2449  20.3236  20.3512  20.3693  20.4775  20.5008

          k = 0.4500 0.5000 0.0000 ( 17112 PWs)   bands (ev):

  -101.7053-101.7053-101.2887 -59.2323 -59.2323 -59.2281 -59.2281 -58.8351
   -58.8343 -58.8236 -58.6237 -58.6236 -30.5952 -15.7418 -15.7315 -11.0702
   -11.0496 -10.6842  -6.7248  -6.7147  -6.6748  -6.4306  -6.2860  -6.2538
    -1.5849  -1.5794  -1.5585  -1.5525  -1.3008  -1.1038   3.5831   4.1918
     5.2289   5.4491   5.4971   5.6561   5.9639   6.7216   6.7534   6.9974
     7.0826   7.1308   7.4306   7.4375   8.2646   8.4864   8.4873   8.4985
     8.7911   9.1109   9.3548   9.4858   9.5416   9.5994   9.5999   9.6224
     9.6598   9.7447   9.7557  10.2106  10.2112  12.5865  12.6591  12.6905
    12.7344  13.5655  14.5411  15.6021  15.6606  15.7710  16.1840  16.1887
    17.3654  17.4421  17.8452  17.9373  17.9905  18.2115  18.4289  19.1498
    19.2030  19.2564  19.3874  19.4543  19.7606  20.0617  20.0843  20.1644
    20.1769  20.2398  20.3452  20.3812  20.4750  20.4945

          k = 0.4250 0.5000 0.0000 ( 17120 PWs)   bands (ev):

  -101.7053-101.7053-101.2887 -59.2323 -59.2323 -59.2281 -59.2281 -58.8351
[...]
    13.4998  13.5811  13.8344  14.8393  15.4379  15.4706  15.6147  15.6969
    16.2164  16.4628  17.0202  17.0922  17.5682  17.8835  17.8838  18.0567
    18.6481  18.7196  18.9026  19.0511  19.4767  19.5134  19.6241  19.9852
    19.9860  20.0507  20.2417  20.3089  20.3141  20.5271

          k = 0.0750 0.0750 0.0000 ( 17041 PWs)   bands (ev):

  -101.7053-101.7053-101.2887 -59.2323 -59.2322 -59.2281 -59.2280 -58.8351
   -58.8344 -58.8237 -58.6236 -58.6234 -30.6176 -15.9240 -15.9118 -11.0632
   -10.6302 -10.6227  -7.5811  -6.7898  -6.6235  -6.4602  -6.3691  -6.2567
    -1.3751  -1.1305  -0.8831  -0.8679  -0.7836  -0.7640   5.4945   5.7153
     5.7915   5.9040   6.0531   6.0621   6.8938   6.9884   7.2939   7.4015
     7.6438   7.7702   7.9932   8.0033   8.0074   8.2215   8.2596   8.4077
     8.4717   8.4881   8.5915   8.6312   8.6707   8.6841   8.8318   8.9186
     8.9453   9.1954   9.6203   9.7062   9.8208  10.0474  10.1617  12.8268
    13.5978  13.6111  13.9484  14.8861  15.2973  15.5930  15.6457  15.7136
    16.3380  16.4925  16.9589  17.0765  17.6264  17.9253  17.9615  18.2691
    18.5810  18.6960  18.8324  19.0531  19.3988  19.5888  19.6661  19.9173
    19.9998  20.0225  20.2272  20.2959  20.3060  20.4857

          k = 0.1000 0.1000 0.0000 ( 17049 PWs)   bands (ev):

  -101.7053-101.7053-101.2887 -59.2323 -59.2322 -59.2281 -59.2280 -58.8351
   -58.8344 -58.8237 -58.6236 -58.6234 -30.6166 -15.9153 -15.9032 -11.0468
   -10.6554 -10.6439  -7.5237  -6.7918  -6.6450  -6.4493  -6.3902  -6.2786
    -1.3701  -1.1312  -0.9178  -0.9008  -0.7520  -0.7281   5.4573   5.6746
     5.8034   5.8637   6.0218   6.0685   6.8663   6.9889   7.2207   7.3967
     7.4883   7.6171   7.9254   7.9665   7.9998   8.2174   8.2471   8.4170
     8.4232   8.5223   8.6014   8.6630   8.6683   8.7350   8.8487   8.8985
     8.9274   9.1559   9.6595   9.8845   9.9732   9.9851  10.1898  12.8940
    13.6482  13.7511  14.1058  14.9434  15.1374  15.6254  15.7481  15.7985
    16.4707  16.5219  16.9076  17.0509  17.6726  17.9817  18.0656  18.4817
    18.5182  18.6998  18.7376  19.0791  19.3423  19.6722  19.7085  19.8233
    19.9652  20.0358  20.2100  20.2794  20.3009  20.4377

          k = 0.1250 0.1250 0.0000 ( 17057 PWs)   bands (ev):

  -101.7053-101.7053-101.2887 -59.2323 -59.2322 -59.2281 -59.2281 -58.8351
   -58.8344 -58.8237 -58.6236 -58.6235 -30.6154 -15.9045 -15.8926 -11.0263
   -10.6858 -10.6698  -7.4533  -6.7946  -6.6687  -6.4360  -6.4132  -6.3055
    -1.3633  -1.1312  -0.9603  -0.9415  -0.7224  -0.6935   5.3998   5.6230
     5.8099   5.8127   5.9823   6.0942   6.8300   6.9882   7.1454   7.3214
     7.3916   7.4340   7.8323   7.9456   7.9817   8.2271   8.2370   8.3137
     8.4320   8.5463   8.5916   8.6547   8.7093   8.8378   8.8864   8.9117
     8.9471   9.1368   9.6950   9.9240  10.0644  10.0732  10.2909  12.9379
    13.7400  13.9074  14.3045  14.9861  15.0034  15.5807  15.9181  15.9231
    16.5455  16.5946  16.8682  17.0127  17.6948  18.0472  18.1831  18.4293
    18.5822  18.6455  18.8703  19.1337  19.3118  19.7119  19.7461  19.7558
    19.9146  20.0586  20.1968  20.2616  20.3084  20.3889

          k = 0.1500 0.1500 0.0000 ( 17055 PWs)   bands (ev):

  -101.7053-101.7053-101.2887 -59.2323 -59.2322 -59.2281 -59.2281 -58.8351
   -58.8344 -58.8237 -58.6236 -58.6235 -30.6140 -15.8919 -15.8802 -11.0024
   -10.7198 -10.6997  -7.3721  -6.7978  -6.6922  -6.4358  -6.4209  -6.3366
    -1.3552  -1.1304  -1.0094  -0.9886  -0.7009  -0.6667   5.3146   5.5599
     5.7593   5.8161   5.9372   6.1306   6.7853   6.9848   7.0727   7.1544
     7.2270   7.3869   7.7376   7.9339   7.9463   8.2109   8.2165   8.2664
     8.4488   8.5705   8.5718   8.6448   8.7408   8.9131   8.9480   8.9837
     8.9981   9.1363   9.7225   9.8751  10.0912  10.2706  10.4637  12.9521
    13.8766  14.0349  14.5417  14.8972  15.0482  15.5224  16.0569  16.1039
    16.5648  16.6961  16.8333  16.9602  17.6924  18.1072  18.2812  18.3619
    18.5963  18.5999  19.1289  19.2104  19.2920  19.6047  19.7765  19.8344
    19.8724  20.0710  20.1843  20.2455  20.3382  20.3532

          k = 0.1750 0.1750 0.0000 ( 17049 PWs)   bands (ev):

  -101.7053-101.7053-101.2887 -59.2323 -59.2322 -59.2281 -59.2281 -58.8351
   -58.8344 -58.8237 -58.6236 -58.6235 -30.6123 -15.8781 -15.8665 -10.9754
   -10.7563 -10.7328  -7.2826  -6.8013  -6.7130  -6.4559  -6.4046  -6.3711
    -1.3461  -1.1289  -1.0635  -1.0410  -0.6932  -0.6540   5.1988   5.4840
     5.7212   5.8115   5.8884   6.1736   6.7320   6.9633   6.9759   7.0059
     7.0451   7.3836   7.6586   7.8858   7.9105   8.1719   8.2026   8.2960
     8.4676   8.5586   8.6129   8.6330   8.7581   8.9753   9.0276   9.0567
     9.0903   9.1516   9.7351   9.8490  10.1009  10.4752  10.6598  12.9425
    14.0479  14.0603  14.8142  14.9437  15.0602  15.4632  16.2056  16.2731
    16.5892  16.7706  16.7910  16.8929  17.6724  18.1377  18.3003  18.3213
    18.6335  18.6519  19.2493  19.2949  19.3453  19.5427  19.8034  19.8647
    19.9042  20.0681  20.1585  20.2349  20.3412  20.3570

          k = 0.2000 0.2000 0.0000 ( 17076 PWs)   bands (ev):

  -101.7053-101.7053-101.2887 -59.2323 -59.2322 -59.2281 -59.2281 -58.8351
   -58.8344 -58.8237 -58.6236 -58.6235 -30.6106 -15.8632 -15.8519 -10.9461
   -10.7938 -10.7680  -7.1879  -6.8045  -6.7286  -6.4721  -6.4080  -6.3876
    -1.3367  -1.1270  -1.1212  -1.0970  -0.7041  -0.6606   5.0569   5.3939
     5.6955   5.7979   5.8373   6.2204   6.6545   6.7772   6.8450   6.9649
     6.9990   7.3822   7.6067   7.8157   7.8406   8.2058   8.2069   8.3141
     8.4906   8.5716   8.6214   8.6704   8.7701   9.0561   9.0693   9.1604
     9.1804   9.1824   9.7311   9.8497  10.1076  10.6856  10.8637  12.9175
    13.9704  14.2412  15.0146  15.1178  15.1403  15.4213  16.3512  16.4071
    16.6310  16.7364  16.8125  16.8258  17.6440  18.1292  18.2422  18.3313
    18.6929  18.7720  19.1703  19.3670  19.4568  19.5510  19.8342  19.9121
    19.9620  20.0568  20.1316  20.2339  20.3092  20.4045

          k = 0.2250 0.2250 0.0000 ( 17078 PWs)   bands (ev):

  -101.7053-101.7053-101.2887 -59.2323 -59.2322 -59.2281 -59.2281 -58.8351
   -58.8344 -58.8237 -58.6236 -58.6235 -30.6088 -15.8478 -15.8367 -10.9152
   -10.8313 -10.8046  -7.0916  -6.8067  -6.7359  -6.4834  -6.4462  -6.3704
    -1.3279  -1.1808  -1.1554  -1.1247  -0.7365  -0.6899   4.8964   5.2886
     5.6781   5.7756   5.7854   6.2632   6.5342   6.5623   6.7972   6.9467
     6.9693   7.3831   7.5877   7.7295   7.7583   8.2209   8.2980   8.3175
     8.5196   8.5938   8.6310   8.7406   8.7821   9.1050   9.1434   9.2266
     9.2571   9.2645   9.7247   9.8646  10.1148  10.9001  11.0705  12.8831
    13.8246  14.4458  14.9111  15.3971  15.4262  15.4468  16.4678  16.4867
    16.6252  16.7201  16.7428  16.8886  17.6157  18.0991  18.1843  18.3475
    18.7143  18.9440  19.0859  19.4075  19.4795  19.6038  19.8799  19.9588
    20.0062  20.0551  20.1350  20.2454  20.2934  20.4712

          k = 0.2500 0.2500 0.0000 ( 17076 PWs)   bands (ev):

  -101.7053-101.7053-101.2887 -59.2323 -59.2322 -59.2281 -59.2281 -58.8351
   -58.8344 -58.8237 -58.6236 -58.6235 -30.6069 -15.8323 -15.8213 -10.8835
   -10.8679 -10.8414  -6.9990  -6.8069  -6.7309  -6.4901  -6.4845  -6.3534
    -1.3203  -1.2407  -1.2144  -1.1225  -0.7911  -0.7430   4.7249   5.1684
     5.6651   5.7342   5.7464   6.2394   6.4034   6.4289   6.8017   6.9240
     6.9509   7.3862   7.6032   7.6337   7.6804   8.2459   8.3124   8.4229
     8.5557   8.5847   8.6954   8.7958   8.8198   9.1373   9.2297   9.2792
     9.3408   9.3456   9.7269   9.8826  10.1238  11.1170  11.2777  12.8427
    13.6628  14.6470  14.7764  15.3733  15.7588  15.7913  16.4811  16.5176
    16.5846  16.6294  16.8138  17.0001  17.5945  18.0687  18.1246  18.3731
    18.6943  19.0096  19.1449  19.4055  19.4689  19.6777  19.9447  19.9457
    20.0386  20.0675  20.1819  20.2687  20.3208  20.5141

          k = 0.2750 0.2750 0.0000 ( 17104 PWs)   bands (ev):

  -101.7053-101.7053-101.2887 -59.2323 -59.2323 -59.2281 -59.2281 -58.8351
   -58.8344 -58.8237 -58.6236 -58.6235 -30.6050 -15.8171 -15.8062 -10.9027
   -10.8776 -10.8516  -6.9184  -6.8044  -6.7073  -6.5232  -6.4910  -6.3372
    -1.3146  -1.2995  -1.2727  -1.1207  -0.8662  -0.8183   4.5491   5.0356
     5.6543   5.6847   5.7122   6.0782   6.2871   6.4517   6.8339   6.8981
     6.9453   7.3911   7.5394   7.6055   7.6515   8.2778   8.3052   8.5701
     8.5709   8.5989   8.7804   8.8119   8.9053   9.1689   9.3107   9.3355
     9.4085   9.4249   9.7414   9.8996  10.1346  11.3341  11.4829  12.7983
    13.5019  14.6022  14.8620  15.3413  16.1165  16.1185  16.3659  16.4967
    16.5600  16.6314  16.8573  17.1666  17.5865  18.0466  18.0700  18.3987
    18.6633  18.9454  19.3379  19.3638  19.4605  19.7596  19.9042  20.0220
    20.0638  20.0748  20.2603  20.2995  20.3910  20.5063

          k = 0.3000 0.3000 0.0000 ( 17100 PWs)   bands (ev):

  -101.7053-101.7053-101.2887 -59.2323 -59.2323 -59.2281 -59.2281 -58.8351
   -58.8344 -58.8237 -58.6236 -58.6235 -30.6032 -15.8024 -15.7918 -10.9351
   -10.9123 -10.8205  -6.8580  -6.7987  -6.6592  -6.5598  -6.4883  -6.3220
    -1.3560  -1.3288  -1.3112  -1.1198  -0.9579  -0.9116   4.3746   4.8949
     5.6378   5.6452   5.6755   5.9007   6.1924   6.5103   6.8708   6.8709
     6.9638   7.3964   7.4519   7.5344   7.7291   8.2989   8.3134   8.5570
     8.6468   8.7313   8.8317   8.8764   8.9947   9.2005   9.3830   9.3932
     9.4672   9.4946   9.7681   9.9145  10.1472  11.5486  11.6840  12.7519
    13.3497  14.4399  15.0207  15.3233  16.2269  16.2588  16.4294  16.4852
    16.6819  16.6978  16.8526  17.3595  17.5982  17.9953  18.0671  18.4162
    18.6421  18.9155  19.2909  19.3891  19.5486  19.8409  19.8798  20.0856
    20.0880  20.1017  20.3324  20.3371  20.4795  20.4936

          k = 0.3250 0.3250 0.0000 ( 17112 PWs)   bands (ev):

  -101.7053-101.7053-101.2887 -59.2323 -59.2323 -59.2281 -59.2281 -58.8351
   -58.8344 -58.8236 -58.6237 -58.6235 -30.6014 -15.7888 -15.7782 -10.9647
   -10.9448 -10.7909  -6.8163  -6.7898  -6.5942  -6.5913  -6.4822  -6.3082
    -1.4087  -1.3814  -1.3114  -1.1227  -1.0599  -1.0144   4.2064   4.7522
     5.5949   5.6357   5.6385   5.7415   6.1192   6.5696   6.8435   6.8917
     7.0171   7.3661   7.4087   7.4691   7.8307   8.2948   8.3502   8.5437
     8.6943   8.8580   8.8989   8.9788   9.0859   9.2318   9.4440   9.4509
     9.5173   9.5547   9.8036   9.9293  10.1611  11.7571  11.8784  12.7068
    13.2103  14.2782  15.0580  15.4008  16.0864  16.1885  16.3379  16.7606
    16.8100  16.8437  17.0105  17.5477  17.6407  17.9472  18.0890  18.4269
    18.6491  18.9375  19.1947  19.3624  19.5911  19.9160  19.9428  20.1077
    20.1096  20.1761  20.3369  20.3641  20.5119  20.5995

          k = 0.3500 0.3500 0.0000 ( 17098 PWs)   bands (ev):

  -101.7053-101.7053-101.2887 -59.2323 -59.2323 -59.2281 -59.2281 -58.8351
   -58.8343 -58.8236 -58.6237 -58.6235 -30.5998 -15.7764 -15.7659 -10.9910
   -10.9743 -10.7636  -6.7836  -6.7783  -6.6256  -6.5167  -6.4735  -6.2958
    -1.4566  -1.4295  -1.3176  -1.1629  -1.1589  -1.0906   4.0492   4.6143
     5.5562   5.5831   5.6030   5.6497   6.0648   6.6216   6.8177   6.9045
     7.0858   7.2962   7.4123   7.4150   7.9486   8.2934   8.3862   8.5314
     8.7341   8.8949   9.0656   9.0838   9.1772   9.2617   9.4943   9.5046
     9.5592   9.6053   9.8367   9.9521  10.1754  11.9553  12.0632  12.6674
    13.0860  14.1231  14.9888  15.5566  15.9535  16.0792  16.2323  16.7001
    16.8694  17.1625  17.3255  17.6997  17.7372  17.9505  18.1117  18.4345
    18.7241  19.0036  19.0829  19.3276  19.5490  19.9805  20.0577  20.1300
    20.1368  20.2400  20.2719  20.3926  20.5861  20.5905

          k = 0.3750 0.3750 0.0000 ( 17120 PWs)   bands (ev):

  -101.7053-101.7053-101.2887 -59.2323 -59.2323 -59.2281 -59.2281 -58.8351
   -58.8343 -58.8236 -58.6237 -58.6235 -30.5984 -15.7656 -15.7552 -11.0138
   -11.0001 -10.7392  -6.7651  -6.7542  -6.6532  -6.4633  -6.4452  -6.2851
    -1.4987  -1.4719  -1.3431  -1.2583  -1.2466  -1.1027   3.9075   4.4874
     5.4711   5.5225   5.5707   5.6431   6.0257   6.6631   6.7944   6.9185
     7.1446   7.2353   7.3722   7.4219   8.0724   8.2960   8.4200   8.5203
     8.7612   8.9434   9.1876   9.2240   9.2670   9.2891   9.5327   9.5514
     9.5937   9.6467   9.8508   9.9956  10.1893  12.1382  12.2345  12.6398
    12.9785  13.9774  14.8860  15.7152  15.8371  15.9644  16.1275  16.5864
    16.9692  17.3933  17.4977  17.8029  17.9177  18.1053  18.1186  18.4387
    18.8913  18.9680  19.1037  19.2891  19.4967  20.0262  20.1469  20.1584
    20.1671  20.1962  20.2876  20.4170  20.5623  20.5643

          k = 0.4000 0.4000 0.0000 ( 17110 PWs)   bands (ev):

  -101.7053-101.7053-101.2887 -59.2323 -59.2323 -59.2281 -59.2281 -58.8351
   -58.8343 -58.8236 -58.6237 -58.6236 -30.5972 -15.7564 -15.7461 -11.0329
   -11.0217 -10.7183  -6.7517  -6.7268  -6.6766  -6.4525  -6.3824  -6.2760
    -1.5342  -1.5078  -1.4091  -1.3604  -1.2823  -1.1041   3.7852   4.3766
     5.3760   5.4942   5.5428   5.6450   5.9983   6.6937   6.7746   6.9361
     7.1647   7.1908   7.3627   7.4287   8.1838   8.3101   8.4504   8.5107
     8.7772   8.9979   9.2857   9.3132   9.3533   9.3672   9.5592   9.5881
     9.6213   9.6793   9.8434  10.0563  10.2019  12.3005  12.3879  12.6299
    12.8889  13.8422  14.7745  15.7431  15.8338  15.8541  16.0533  16.4616
    17.0786  17.5181  17.5403  17.8697  18.0986  18.1493  18.4111  18.4400
    18.8804  19.0934  19.2464  19.2667  19.4627  20.0225  20.1524  20.1590
    20.1950  20.2326  20.3059  20.4361  20.5245  20.5254

          k = 0.4250 0.4250 0.0000 ( 17116 PWs)   bands (ev):

  -101.7053-101.7053-101.2887 -59.2323 -59.2323 -59.2281 -59.2281 -58.8351
   -58.8343 -58.8236 -58.6237 -58.6236 -30.5962 -15.7492 -15.7389 -11.0483
   -11.0386 -10.7015  -6.7395  -6.7025  -6.6951  -6.4424  -6.3317  -6.2684
    -1.5625  -1.5365  -1.4852  -1.4489  -1.2935  -1.1042   3.6861   4.2863
     5.3022   5.4719   5.5201   5.6493   5.9799   6.7144   6.7588   6.9573
     7.1357   7.1672   7.3847   7.4344   8.2456   8.3620   8.4762   8.5029
     8.7859   9.0504   9.3317   9.3754   9.4343   9.4883   9.5750   9.6106
     9.6430   9.7032   9.8214  10.1201  10.2122  12.4361  12.5177  12.6406
    12.8176  13.7192  14.6682  15.6751  15.7558  15.8439  16.0771  16.3398
    17.1924  17.4917  17.6560  17.9258  18.0501  18.2912  18.4382  18.7547
    18.9039  19.2029  19.2284  19.4518  19.5396  19.9645  20.1557  20.1608
    20.2176  20.2658  20.2881  20.4439  20.4812  20.4968

          k = 0.4500 0.4500 0.0000 ( 17108 PWs)   bands (ev):

  -101.7053-101.7053-101.2887 -59.2323 -59.2323 -59.2281 -59.2281 -58.8351
   -58.8343 -58.8236 -58.6237 -58.6236 -30.5955 -15.7439 -15.7336 -11.0597
   -11.0505 -10.6892  -6.7300  -6.7082  -6.6831  -6.4341  -6.2958  -6.2615
    -1.5831  -1.5574  -1.5469  -1.5169  -1.2990  -1.1040   3.6131   4.2195
     5.2499   5.4557   5.5035   5.6539   5.9683   6.7269   6.7478   6.9813
     7.1064   7.1383   7.4141   7.4388   8.2615   8.4371   8.4960   8.4973
     8.7902   9.0942   9.3461   9.4516   9.5065   9.5816   9.5825   9.6163
     9.6600   9.7186   9.7892  10.1752  10.2196  12.5402  12.6174  12.6683
    12.7645  13.6133  14.5798  15.6329  15.6775  15.7954  16.1497  16.2351
    17.3028  17.4613  17.7695  17.9807  17.9816  18.2616  18.4329  19.0801
    19.0835  19.1658  19.3214  19.4555  19.7550  20.0013  20.1229  20.1582
    20.1779  20.2338  20.3272  20.4084  20.4719  20.4943

          k = 0.4750 0.4750 0.0000 ( 17104 PWs)   bands (ev):

  -101.7053-101.7053-101.2887 -59.2323 -59.2323 -59.2281 -59.2281 -58.8351
   -58.8343 -58.8236 -58.6237 -58.6236 -30.5950 -15.7407 -15.7305 -11.0667
   -11.0576 -10.6817  -6.7252  -6.7149  -6.6705  -6.4286  -6.2770  -6.2543
    -1.5959  -1.5859  -1.5703  -1.5594  -1.3019  -1.1038   3.5684   4.1786
     5.2187   5.4458   5.4933   5.6574   5.9619   6.7319   6.7428   7.0051
     7.0854   7.1122   7.4350   7.4415   8.2657   8.4887   8.4972   8.5086
     8.7919   9.1233   9.3548   9.5123   9.5627   9.5836   9.6066   9.6422
     9.6757   9.7254   9.7517  10.2124  10.2241  12.6087  12.6806  12.6991
    12.7289  13.5365  14.5212  15.6113  15.6278  15.7572  16.1627  16.2021
    17.3932  17.4403  17.8890  17.9134  18.0261  18.1526  18.4258  19.1415
    19.2974  19.3461  19.3831  19.4629  19.7472  20.0208  20.0498  20.1744
    20.2434  20.2634  20.3498  20.3730  20.4765  20.4997

          k = 0.5000 0.5000 0.0000 ( 17104 PWs)   bands (ev):

  -101.7053-101.7053-101.2887 -59.2323 -59.2323 -59.2281 -59.2281 -58.8351
   -58.8343 -58.8236 -58.6237 -58.6236 -30.5949 -15.7397 -15.7294 -11.0691
   -11.0600 -10.6792  -6.7248  -6.7159  -6.6662  -6.4267  -6.2722  -6.2504
    -1.6017  -1.5978  -1.5761  -1.5724  -1.3028  -1.1037   3.5533   4.1648
     5.2083   5.4426   5.4899   5.6586   5.9599   6.7322   6.7423   7.0180
     7.0749   7.1016   7.4423   7.4425   8.2667   8.4913   8.5124   8.5135
     8.7924   9.1335   9.3577   9.5445   9.5778   9.5858   9.5970   9.6642
     9.6894   9.7253   9.7273  10.2253  10.2257  12.6350  12.7023  12.7106
    12.7165  13.5075  14.5007  15.6025  15.6134  15.7436  16.1365  16.2204
    17.4273  17.4373  17.8819  17.9945  18.0335  18.0573  18.4221  19.1330
    19.4045  19.4059  19.4652  19.4672  19.7298  19.9421  19.9953  20.1819
    20.2465  20.3532  20.3657  20.3919  20.4784  20.5023

     Writing all to output data dir ./YBCO6/YBCO6.save/
 
     init_run     :      0.95s CPU      1.28s WALL (       1 calls)
     electrons    :    532.38s CPU    541.13s WALL (       1 calls)

     Called by init_run:
     wfcinit      :      0.00s CPU      0.00s WALL (       1 calls)
     wfcinit:atom :      0.26s CPU      0.28s WALL (     101 calls)
     wfcinit:wfcr :     13.49s CPU     13.73s WALL (     101 calls)
     potinit      :      0.05s CPU      0.09s WALL (       1 calls)
     hinit0       :      0.25s CPU      0.28s WALL (       1 calls)

     Called by electrons:
     c_bands      :    532.38s CPU    541.13s WALL (       1 calls)
     v_of_rho     :      0.04s CPU      0.06s WALL (       1 calls)
     v_h          :      0.01s CPU      0.01s WALL (       1 calls)
     v_xc         :      0.04s CPU      0.06s WALL (       1 calls)
     newd         :      0.57s CPU      0.82s WALL (       1 calls)

     Called by c_bands:
     init_us_2    :      0.27s CPU      0.32s WALL (     101 calls)
     init_us_2:cp :      0.27s CPU      0.32s WALL (     101 calls)
     cegterg      :    513.81s CPU    521.38s WALL (     351 calls)

     Called by sum_band:

     Called by *egterg:
     cdiaghg      :     40.31s CPU     40.64s WALL (    6245 calls)
     cegterg:over :     59.35s CPU     60.62s WALL (    6144 calls)
     cegterg:upda :     35.79s CPU     35.90s WALL (    6144 calls)
     cegterg:last :     82.12s CPU     82.16s WALL (    2547 calls)
     h_psi        :    253.54s CPU    258.19s WALL (    6596 calls)
     s_psi        :     37.68s CPU     38.25s WALL (    6596 calls)
     g_psi        :      1.87s CPU      1.87s WALL (    6144 calls)

     Called by h_psi:
     h_psi:calbec :     38.06s CPU     38.62s WALL (    6596 calls)
     vloc_psi     :    174.13s CPU    177.83s WALL (    6596 calls)
     add_vuspsi   :     37.68s CPU     37.82s WALL (    6596 calls)

     General routines
     calbec       :     38.04s CPU     38.60s WALL (    6596 calls)
     fft          :      0.03s CPU      0.04s WALL (      13 calls)
     ffts         :      0.00s CPU      0.00s WALL (       1 calls)
     fftw         :    133.18s CPU    135.97s WALL (  526118 calls)
     interpolate  :      0.00s CPU      0.00s WALL (       1 calls)
     davcio       :      0.24s CPU      0.44s WALL (     202 calls)
 
     Parallel routines
 
     PWSCF        :   8m54.00s CPU   9m 4.53s WALL

 
   This run was terminated on:  12:22:16  29Dec2023            

=------------------------------------------------------------------------------=
   JOB DONE.
=------------------------------------------------------------------------------=
