
     Program DOS v.7.2 starts on  2Dec2023 at 12:29:23 

     This program is part of the open-source Quantum ESPRESSO suite
     for quantum simulation of materials; please cite
         "P. Giannozzi et al., J. Phys.:Condens. Matter 21 395502 (2009);
         "P. Giannozzi et al., J. Phys.:Condens. Matter 29 465901 (2017);
         "P. Giannozzi et al., J. Chem. Phys. 152 154105 (2020);
          URL http://www.quantum-espresso.org", 
     in publications or presentations arising from this work. More details at
     http://www.quantum-espresso.org/quote

     Parallel version (MPI), running on     4 processors

     MPI processes distributed on     1 nodes
     R & G space division:  proc/nbgrp/npool/nimage =       4
     12960 MiB available memory on the printing compute node when the environment starts
 

     Reading xml data from directory:

     ./outdir/NiO_woU.save/
     file O.pbe-n-kjpaw_psl.0.1.UPF: wavefunction(s)  2P renormalized

     IMPORTANT: XC functional enforced from input :
     Exchange-correlation= PBE
                           (   1   4   3   4   0   0   0)
     Any further DFT definition will be discarded
     Please, verify this is what you really want

 
     Parallelization info
     --------------------
     sticks:   dense  smooth     PW     G-vecs:    dense   smooth      PW
     Min         513     206     71                11637     2965     603
     Max         514     207     73                11639     2966     604
     Sum        2055     825    287                46553    11861    2413
 
     Using Slab Decomposition
 

     Check: negative core charge=   -0.000006

     Tetrahedra used

 
     DOS          :     45.00s CPU     45.15s WALL

 
   This run was terminated on:  12:30: 8   2Dec2023            

=------------------------------------------------------------------------------=
   JOB DONE.
=------------------------------------------------------------------------------=
