
     Program BANDS v.7.2 starts on 31Dec2023 at  3: 8:15 

     This program is part of the open-source Quantum ESPRESSO suite
     for quantum simulation of materials; please cite
         "P. Giannozzi et al., J. Phys.:Condens. Matter 21 395502 (2009);
         "P. Giannozzi et al., J. Phys.:Condens. Matter 29 465901 (2017);
         "P. Giannozzi et al., J. Chem. Phys. 152 154105 (2020);
          URL http://www.quantum-espresso.org", 
     in publications or presentations arising from this work. More details at
     http://www.quantum-espresso.org/quote

     Parallel version (MPI), running on     4 processors

     MPI processes distributed on     1 nodes
     R & G space division:  proc/nbgrp/npool/nimage =       4
     2970 MiB available memory on the printing compute node when the environment starts
 

     Reading xml data from directory:

     ./YBCO6/YBCO6.save/

     IMPORTANT: XC functional enforced from input :
     Exchange-correlation= PZ
                           (   1   1   0   0   0   0   0)
     Any further DFT definition will be discarded
     Please, verify this is what you really want

 
     Parallelization info
     --------------------
     sticks:   dense  smooth     PW     G-vecs:    dense   smooth      PW
     Min         577     258     73                62701    18582    2923
     Max         579     259     74                62707    18585    2934
     Sum        2313    1033    293               250811    74333   11703
 
     Using Slab Decomposition
 

     Check: negative core charge=   -0.000002

     negative rho (up, down):  1.791E-01 0.000E+00
     Reading collected, re-writing distributed wavefunctions
     high-symmetry point:  0.0000 0.0000 0.0000   x coordinate   0.0000
     high-symmetry point:  0.5000 0.0000 0.0000   x coordinate   0.5000
     high-symmetry point:  0.5000 0.5000 0.0000   x coordinate   1.0000
     high-symmetry point:  0.0000 0.5000 0.0000   x coordinate   1.5000
     high-symmetry point:  0.0000 0.0000 0.0000   x coordinate   2.0000
     high-symmetry point:  0.5000 0.5000 0.0000   x coordinate   2.7071

     Plottable bands (eV) written to file YBCO6.band.gnu
     Bands written to file YBCO6.band

 **************************************************************************

                    xk=(   0.00000,   0.00000,   0.00000  )

     point group D_2h (mmm) 
     there are  8 classes
     the character table:

       E     C2    C2'   C2''  i     s_v   s_v'  s_v''
A_g    1.00  1.00  1.00  1.00  1.00  1.00  1.00  1.00
B_1g   1.00  1.00 -1.00 -1.00  1.00  1.00 -1.00 -1.00
B_2g   1.00 -1.00  1.00 -1.00  1.00 -1.00  1.00 -1.00
B_3g   1.00 -1.00 -1.00  1.00  1.00 -1.00 -1.00  1.00
A_u    1.00  1.00  1.00  1.00 -1.00 -1.00 -1.00 -1.00
B_1u   1.00  1.00 -1.00 -1.00 -1.00 -1.00  1.00  1.00
B_2u   1.00 -1.00  1.00 -1.00 -1.00  1.00 -1.00  1.00
B_3u   1.00 -1.00 -1.00  1.00 -1.00  1.00  1.00 -1.00

     the symmetry operations in each class and the name of the first element:

     E        1
                                                                 
     C2       2
                                                                 
     C2'      4
                                                                 
     C2''     3
                                                                 
     i        5
                                                                 
     s_v      6
                                                                 
     s_v'     8
                                                                 
     s_v''    7
                                                                 

     Band symmetry, D_2h (mmm)  point group:

     e(  1 -  2) =   -101.28457  eV     2   --> A_g            
     e(  1 -  2) =   -101.28457  eV     2   --> B_1u           
     e(  3 -  3) =   -100.92085  eV     1   --> A_g            
     e(  4 -  5) =    -59.25879  eV     2   --> B_2g           
     e(  4 -  5) =    -59.25879  eV     2   --> B_3u           
     e(  6 -  7) =    -59.25327  eV     2   --> B_3g           
     e(  6 -  7) =    -59.25327  eV     2   --> B_2u           
     e(  8 -  8) =    -58.91173  eV     1   --> B_1u           
     e(  9 -  9) =    -58.86100  eV     1   --> A_g            
     e( 10 - 10) =    -58.86019  eV     1   --> B_1u           
     e( 11 - 11) =    -58.69825  eV     1   --> B_3u           
     e( 12 - 12) =    -58.69812  eV     1   --> B_2u           
     e( 13 - 13) =    -30.77013  eV     1   --> A_g            
     e( 14 - 14) =    -16.24995  eV     1   --> A_g            
     e( 15 - 15) =    -16.23734  eV     1   --> B_1u           
     e( 16 - 16) =    -11.30077  eV     1   --> B_1u           
     e( 17 - 17) =    -10.80497  eV     1   --> B_2u           
     e( 18 - 18) =    -10.80207  eV     1   --> B_3u           
     e( 19 - 19) =     -7.78358  eV     1   --> A_g            
     e( 20 - 20) =     -6.88707  eV     1   --> B_1u           
     e( 21 - 21) =     -6.71629  eV     1   --> A_g            
     e( 22 - 22) =     -6.54019  eV     1   --> A_g            
     e( 23 - 23) =     -6.44304  eV     1   --> B_1u           
     e( 24 - 24) =     -6.27936  eV     1   --> B_1u           
     e( 25 - 25) =     -1.64738  eV     1   --> A_g            
     e( 26 - 26) =     -1.38016  eV     1   --> B_1u           
     e( 27 - 27) =     -1.11031  eV     1   --> B_3u           
     e( 28 - 28) =     -1.10939  eV     1   --> B_2u           
     e( 29 - 29) =     -1.09737  eV     1   --> B_2g           
     e( 30 - 30) =     -1.09645  eV     1   --> B_3g           
     e( 31 - 31) =      5.04054  eV     1   --> A_g            
     e( 32 - 32) =      5.31844  eV     1   --> B_2g           
     e( 33 - 33) =      5.32269  eV     1   --> B_3g           
     e( 34 - 34) =      5.47071  eV     1   --> A_g            
     e( 35 - 35) =      5.64634  eV     1   --> B_2u           
     e( 36 - 36) =      5.65685  eV     1   --> B_3u           
     e( 37 - 37) =      6.45444  eV     1   --> B_1u           
     e( 38 - 38) =      6.55549  eV     1   --> A_g            
     e( 39 - 39) =      6.95092  eV     1   --> B_2g           
     e( 40 - 40) =      6.95140  eV     1   --> B_3g           
     e( 41 - 41) =      7.49575  eV     1   --> B_1u           
     e( 42 - 42) =      7.55769  eV     1   --> A_g            
     e( 43 - 43) =      7.56380  eV     1   --> B_1g           
     e( 44 - 44) =      7.61062  eV     1   --> A_u            
     e( 45 - 45) =      7.79323  eV     1   --> B_1u           
     e( 46 - 46) =      7.80348  eV     1   --> B_3g           
     e( 47 - 47) =      7.81388  eV     1   --> B_3u           
     e( 48 - 48) =      7.81720  eV     1   --> B_2u           
     e( 49 - 49) =      7.81775  eV     1   --> B_2g           
     e( 50 - 50) =      7.94203  eV     1   --> A_g            
     e( 51 - 51) =      8.15953  eV     1   --> B_2u           
     e( 52 - 52) =      8.17003  eV     1   --> B_3u           
     e( 53 - 53) =      8.20319  eV     1   --> B_1g           
     e( 54 - 54) =      8.45317  eV     1   --> B_2g           
     e( 55 - 55) =      8.45497  eV     1   --> A_g            
     e( 56 - 56) =      8.49644  eV     1   --> B_3g           
     e( 57 - 57) =      8.70657  eV     1   --> A_g            
     e( 58 - 58) =      8.89745  eV     1   --> B_3u           
     e( 59 - 59) =      8.91575  eV     1   --> B_2u           
     e( 60 - 60) =      9.04096  eV     1   --> B_1u           
     e( 61 - 61) =      9.11295  eV     1   --> B_1u           
     e( 62 - 62) =      9.71601  eV     1   --> B_2g           
     e( 63 - 63) =      9.71756  eV     1   --> B_3g           
     e( 64 - 64) =     12.19376  eV     1   --> A_g            
     e( 65 - 65) =     12.90494  eV     1   --> A_g            
     e( 66 - 66) =     13.09315  eV     1   --> A_g            
     e( 67 - 67) =     13.24104  eV     1   --> B_1u           
     e( 68 - 68) =     14.32945  eV     1   --> A_g            
     e( 69 - 69) =     14.85230  eV     1   --> B_1u           
     e( 70 - 70) =     15.12961  eV     1   --> B_3u           
     e( 71 - 71) =     15.13294  eV     1   --> B_2u           
     e( 72 - 72) =     15.25720  eV     1   --> B_1g           
     e( 73 - 73) =     15.62976  eV     1   --> A_g            
     e( 74 - 74) =     15.97397  eV     1   --> B_1u           
     e( 75 - 75) =     16.70309  eV     1   --> B_3g           
     e( 76 - 76) =     16.71199  eV     1   --> B_2g           
     e( 77 - 77) =     17.09399  eV     1   --> A_g            
     e( 78 - 78) =     17.27547  eV     1   --> B_1u           
     e( 79 - 79) =     17.42323  eV     1   --> B_1g           
     e( 80 - 80) =     17.45606  eV     1   --> A_u            
     e( 81 - 81) =     18.33946  eV     1   --> B_3g           
     e( 82 - 82) =     18.38851  eV     1   --> B_2g           
     e( 83 - 83) =     18.47023  eV     1   --> A_g            
     e( 84 - 84) =     18.64346  eV     1   --> A_g            
     e( 85 - 85) =     18.99901  eV     1   --> B_1u           
     e( 86 - 86) =     19.14192  eV     1   --> B_3u           
     e( 87 - 87) =     19.15166  eV     1   --> B_2u           
     e( 88 - 88) =     19.52093  eV     1   --> B_1u           
     e( 89 - 89) =     19.60514  eV     1   --> B_1g           
     e( 90 - 90) =     19.64659  eV     1   --> A_u            
     e( 91 - 91) =     19.65129  eV     1   --> A_g            
     e( 92 - 92) =     19.89698  eV     1   --> B_2g           
     e( 93 - 93) =     19.90052  eV     1   --> B_3g           
     e( 94 - 94) =     20.12566  eV     1   --> B_3u           

 **************************************************************************

 **************************************************************************

                    xk=(   0.02500,   0.00000,   0.00000  )

     point group C_2v (mm2) 
     there are  4 classes
     the character table:

       E     C2    s_v   s_v' 
A_1    1.00  1.00  1.00  1.00
A_2    1.00  1.00 -1.00 -1.00
B_1    1.00 -1.00  1.00 -1.00
B_2    1.00 -1.00 -1.00  1.00

     the symmetry operations in each class and the name of the first element:

     E        1
                                                                 
     C2       2
                                                                 
     s_v      4
                                                                 
     s_v'     3
                                                                 

     Band symmetry, C_2v (mm2)  point group:

     e(  1 -  2) =   -101.28457  eV     2   --> A_1  D_1  S_1  
     e(  1 -  2) =   -101.28457  eV     2   --> B_1  D_3  S_3  
     e(  3 -  3) =   -100.92085  eV     1   --> A_1  D_1  S_1  
     e(  4 -  5) =    -59.25879  eV     2   --> A_2  D_2  S_2  
     e(  4 -  5) =    -59.25879  eV     2   --> B_2  D_4  S_4  
     e(  6 -  7) =    -59.25327  eV     2   --> A_1  D_1  S_1  
     e(  6 -  7) =    -59.25327  eV     2   --> B_1  D_3  S_3  
     e(  8 -  8) =    -58.91173  eV     1   --> B_1  D_3  S_3  
     e(  9 -  9) =    -58.86100  eV     1   --> A_1  D_1  S_1  
     e( 10 - 10) =    -58.86019  eV     1   --> B_1  D_3  S_3  
     e( 11 - 11) =    -58.69825  eV     1   --> B_2  D_4  S_4  
     e( 12 - 12) =    -58.69812  eV     1   --> A_1  D_1  S_1  
     e( 13 - 13) =    -30.77005  eV     1   --> A_1  D_1  S_1  
     e( 14 - 14) =    -16.24928  eV     1   --> A_1  D_1  S_1  
     e( 15 - 15) =    -16.23667  eV     1   --> B_1  D_3  S_3  
     e( 16 - 16) =    -11.29954  eV     1   --> B_1  D_3  S_3  
     e( 17 - 17) =    -10.80872  eV     1   --> A_1  D_1  S_1  
     e( 18 - 18) =    -10.80196  eV     1   --> B_2  D_4  S_4  
     e( 19 - 19) =     -7.77909  eV     1   --> A_1  D_1  S_1  
     e( 20 - 20) =     -6.88726  eV     1   --> B_1  D_3  S_3  
     e( 21 - 21) =     -6.71832  eV     1   --> A_1  D_1  S_1  
     e( 22 - 22) =     -6.53937  eV     1   --> A_1  D_1  S_1  
     e( 23 - 23) =     -6.44507  eV     1   --> B_1  D_3  S_3  
     e( 24 - 24) =     -6.28103  eV     1   --> B_1  D_3  S_3  
     e( 25 - 25) =     -1.64714  eV     1   --> A_1  D_1  S_1  
     e( 26 - 26) =     -1.38050  eV     1   --> B_1  D_3  S_3  
     e( 27 - 27) =     -1.10977  eV     1   --> A_1  D_1  S_1  
     e( 28 - 28) =     -1.10906  eV     1   --> B_2  D_4  S_4  
     e( 29 - 29) =     -1.09619  eV     1   --> B_1  D_3  S_3  
     e( 30 - 30) =     -1.09609  eV     1   --> A_2  D_2  S_2  
     e( 31 - 31) =      5.03862  eV     1   --> A_1  D_1  S_1  
     e( 32 - 32) =      5.31894  eV     1   --> B_1  D_3  S_3  
     e( 33 - 33) =      5.32034  eV     1   --> A_2  D_2  S_2  
     e( 34 - 34) =      5.47072  eV     1   --> A_1  D_1  S_1  
     e( 35 - 35) =      5.63950  eV     1   --> A_1  D_1  S_1  
     e( 36 - 36) =      5.65741  eV     1   --> B_2  D_4  S_4  
     e( 37 - 37) =      6.45262  eV     1   --> B_1  D_3  S_3  
     e( 38 - 38) =      6.55591  eV     1   --> A_1  D_1  S_1  
     e( 39 - 39) =      6.94731  eV     1   --> B_1  D_3  S_3  
     e( 40 - 40) =      6.94753  eV     1   --> A_2  D_2  S_2  
     e( 41 - 41) =      7.48085  eV     1   --> B_1  D_3  S_3  
     e( 42 - 42) =      7.55003  eV     1   --> B_2  D_4  S_4  
     e( 43 - 43) =      7.55615  eV     1   --> A_1  D_1  S_1  
     e( 44 - 44) =      7.59054  eV     1   --> A_2  D_2  S_2  
     e( 45 - 45) =      7.74473  eV     1   --> B_1  D_3  S_3  
     e( 46 - 46) =      7.81449  eV     1   --> B_2  D_4  S_4  
     e( 47 - 47) =      7.81799  eV     1   --> A_1  D_1  S_1  
     e( 48 - 48) =      7.83292  eV     1   --> A_2  D_2  S_2  
     e( 49 - 49) =      7.87233  eV     1   --> B_1  D_3  S_3  
     e( 50 - 50) =      7.94092  eV     1   --> A_1  D_1  S_1  
     e( 51 - 51) =      8.15595  eV     1   --> A_1  D_1  S_1  
     e( 52 - 52) =      8.17278  eV     1   --> B_2  D_4  S_4  
     e( 53 - 53) =      8.20299  eV     1   --> B_2  D_4  S_4  
     e( 54 - 54) =      8.45629  eV     1   --> A_2  D_2  S_2  
     e( 55 - 55) =      8.45729  eV     1   --> A_1  D_1  S_1  
     e( 56 - 56) =      8.46466  eV     1   --> B_1  D_3  S_3  
     e( 57 - 57) =      8.67766  eV     1   --> A_1  D_1  S_1  
     e( 58 - 58) =      8.89970  eV     1   --> B_2  D_4  S_4  
     e( 59 - 59) =      8.94311  eV     1   --> A_1  D_1  S_1  
     e( 60 - 60) =      9.05890  eV     1   --> B_1  D_3  S_3  
     e( 61 - 61) =      9.12773  eV     1   --> B_1  D_3  S_3  
     e( 62 - 62) =      9.71289  eV     1   --> A_2  D_2  S_2  
     e( 63 - 63) =      9.71358  eV     1   --> B_1  D_3  S_3  
     e( 64 - 64) =     12.20380  eV     1   --> A_1  D_1  S_1  
     e( 65 - 65) =     12.91660  eV     1   --> A_1  D_1  S_1  
     e( 66 - 66) =     13.09356  eV     1   --> A_1  D_1  S_1  
     e( 67 - 67) =     13.25271  eV     1   --> B_1  D_3  S_3  
     e( 68 - 68) =     14.33508  eV     1   --> A_1  D_1  S_1  
     e( 69 - 69) =     14.86617  eV     1   --> B_1  D_3  S_3  
     e( 70 - 70) =     15.11519  eV     1   --> A_1  D_1  S_1  
     e( 71 - 71) =     15.13391  eV     1   --> B_2  D_4  S_4  
     e( 72 - 72) =     15.25591  eV     1   --> B_2  D_4  S_4  
     e( 73 - 73) =     15.64703  eV     1   --> A_1  D_1  S_1  
     e( 74 - 74) =     15.97844  eV     1   --> B_1  D_3  S_3  
     e( 75 - 75) =     16.68642  eV     1   --> B_1  D_3  S_3  
     e( 76 - 76) =     16.71033  eV     1   --> A_2  D_2  S_2  
     e( 77 - 77) =     17.10434  eV     1   --> A_1  D_1  S_1  
     e( 78 - 78) =     17.30109  eV     1   --> B_1  D_3  S_3  
     e( 79 - 79) =     17.43104  eV     1   --> B_2  D_4  S_4  
     e( 80 - 80) =     17.46838  eV     1   --> A_2  D_2  S_2  
     e( 81 - 81) =     18.32574  eV     1   --> B_1  D_3  S_3  
     e( 82 - 82) =     18.38791  eV     1   --> A_2  D_2  S_2  
     e( 83 - 83) =     18.46293  eV     1   --> A_1  D_1  S_1  
     e( 84 - 84) =     18.64181  eV     1   --> A_1  D_1  S_1  
     e( 85 - 85) =     19.01040  eV     1   --> B_1  D_3  S_3  
     e( 86 - 86) =     19.13577  eV     1   --> A_1  D_1  S_1  
     e( 87 - 87) =     19.14479  eV     1   --> B_2  D_4  S_4  
     e( 88 - 88) =     19.52313  eV     1   --> B_1  D_3  S_3  
     e( 89 - 89) =     19.59938  eV     1   --> B_2  D_4  S_4  
     e( 90 - 90) =     19.64312  eV     1   --> A_2  D_2  S_2  
     e( 91 - 91) =     19.65670  eV     1   --> A_1  D_1  S_1  
     e( 92 - 92) =     19.89700  eV     1   --> A_2  D_2  S_2  
     e( 93 - 93) =     19.89779  eV     1   --> B_1  D_3  S_3  
     e( 94 - 94) =     20.12132  eV     1   --> A_1  D_1  S_1  

 **************************************************************************

 **************************************************************************

                    xk=(   0.05000,   0.00000,   0.00000  )

     Band symmetry, C_2v (mm2)  point group:

     e(  1 -  2) =   -101.28457  eV     2   --> A_1  D_1  S_1  
     e(  1 -  2) =   -101.28457  eV     2   --> B_1  D_3  S_3  
     e(  3 -  3) =   -100.92085  eV     1   --> A_1  D_1  S_1  
     e(  4 -  5) =    -59.25879  eV     2   --> A_2  D_2  S_2  
     e(  4 -  5) =    -59.25879  eV     2   --> B_2  D_4  S_4  
     e(  6 -  7) =    -59.25328  eV     2   --> A_1  D_1  S_1  
     e(  6 -  7) =    -59.25328  eV     2   --> B_1  D_3  S_3  
     e(  8 -  8) =    -58.91173  eV     1   --> B_1  D_3  S_3  
     e(  9 -  9) =    -58.86100  eV     1   --> A_1  D_1  S_1  
     e( 10 - 10) =    -58.86019  eV     1   --> B_1  D_3  S_3  
     e( 11 - 11) =    -58.69825  eV     1   --> B_2  D_4  S_4  
     e( 12 - 12) =    -58.69813  eV     1   --> A_1  D_1  S_1  
     e( 13 - 13) =    -30.76982  eV     1   --> A_1  D_1  S_1  
     e( 14 - 14) =    -16.24726  eV     1   --> A_1  D_1  S_1  
     e( 15 - 15) =    -16.23469  eV     1   --> B_1  D_3  S_3  
     e( 16 - 16) =    -11.29589  eV     1   --> B_1  D_3  S_3  
     e( 17 - 17) =    -10.81985  eV     1   --> A_1  D_1  S_1  
     e( 18 - 18) =    -10.80162  eV     1   --> B_2  D_4  S_4  
     e( 19 - 19) =     -7.76574  eV     1   --> A_1  D_1  S_1  
     e( 20 - 20) =     -6.88792  eV     1   --> B_1  D_3  S_3  
     e( 21 - 21) =     -6.72442  eV     1   --> A_1  D_1  S_1  
     e( 22 - 22) =     -6.53693  eV     1   --> A_1  D_1  S_1  
     e( 23 - 23) =     -6.45114  eV     1   --> B_1  D_3  S_3  
     e( 24 - 24) =     -6.28589  eV     1   --> B_1  D_3  S_3  
     e( 25 - 25) =     -1.64639  eV     1   --> A_1  D_1  S_1  
     e( 26 - 26) =     -1.38150  eV     1   --> B_1  D_3  S_3  
     e( 27 - 27) =     -1.11092  eV     1   --> A_1  D_1  S_1  
     e( 28 - 28) =     -1.10531  eV     1   --> B_2  D_4  S_4  
     e( 29 - 29) =     -1.09543  eV     1   --> B_1  D_3  S_3  
     e( 30 - 30) =     -1.09228  eV     1   --> A_2  D_2  S_2  
     e( 31 - 31) =      5.03270  eV     1   --> A_1  D_1  S_1  
     e( 32 - 32) =      5.30754  eV     1   --> B_1  D_3  S_3  
     e( 33 - 33) =      5.32603  eV     1   --> A_2  D_2  S_2  
     e( 34 - 34) =      5.46904  eV     1   --> A_1  D_1  S_1  
     e( 35 - 35) =      5.62154  eV     1   --> A_1  D_1  S_1  
     e( 36 - 36) =      5.65910  eV     1   --> B_2  D_4  S_4  
     e( 37 - 37) =      6.44709  eV     1   --> B_1  D_3  S_3  
     e( 38 - 38) =      6.55643  eV     1   --> A_1  D_1  S_1  
     e( 39 - 39) =      6.93520  eV     1   --> B_1  D_3  S_3  
     e( 40 - 40) =      6.93740  eV     1   --> A_2  D_2  S_2  
     e( 41 - 41) =      7.44111  eV     1   --> B_1  D_3  S_3  
     e( 42 - 42) =      7.51237  eV     1   --> B_2  D_4  S_4  
     e( 43 - 43) =      7.54202  eV     1   --> A_2  D_2  S_2  
     e( 44 - 44) =      7.55250  eV     1   --> A_1  D_1  S_1  
     e( 45 - 45) =      7.71539  eV     1   --> B_1  D_3  S_3  
     e( 46 - 46) =      7.81306  eV     1   --> B_2  D_4  S_4  
     e( 47 - 47) =      7.81823  eV     1   --> A_1  D_1  S_1  
     e( 48 - 48) =      7.86677  eV     1   --> A_2  D_2  S_2  
     e( 49 - 49) =      7.93816  eV     1   --> A_1  D_1  S_1  
     e( 50 - 50) =      7.95572  eV     1   --> B_1  D_3  S_3  
     e( 51 - 51) =      8.14745  eV     1   --> A_1  D_1  S_1  
     e( 52 - 52) =      8.18071  eV     1   --> B_2  D_4  S_4  
     e( 53 - 53) =      8.20246  eV     1   --> B_2  D_4  S_4  
     e( 54 - 54) =      8.38881  eV     1   --> B_1  D_3  S_3  
     e( 55 - 55) =      8.46355  eV     1   --> A_1  D_1  S_1  
     e( 56 - 56) =      8.46561  eV     1   --> A_2  D_2  S_2  
     e( 57 - 57) =      8.61409  eV     1   --> A_1  D_1  S_1  
     e( 58 - 58) =      8.90658  eV     1   --> B_2  D_4  S_4  
     e( 59 - 59) =      9.00188  eV     1   --> A_1  D_1  S_1  
     e( 60 - 60) =      9.07855  eV     1   --> B_1  D_3  S_3  
     e( 61 - 61) =      9.18868  eV     1   --> B_1  D_3  S_3  
     e( 62 - 62) =      9.70202  eV     1   --> B_1  D_3  S_3  
     e( 63 - 63) =      9.70371  eV     1   --> A_2  D_2  S_2  
     e( 64 - 64) =     12.23269  eV     1   --> A_1  D_1  S_1  
     e( 65 - 65) =     12.95095  eV     1   --> A_1  D_1  S_1  
     e( 66 - 66) =     13.09566  eV     1   --> A_1  D_1  S_1  
     e( 67 - 67) =     13.28763  eV     1   --> B_1  D_3  S_3  
     e( 68 - 68) =     14.35010  eV     1   --> A_1  D_1  S_1  
     e( 69 - 69) =     14.90742  eV     1   --> B_1  D_3  S_3  
     e( 70 - 70) =     15.07085  eV     1   --> A_1  D_1  S_1  
     e( 71 - 71) =     15.14658  eV     1   --> B_2  D_4  S_4  
     e( 72 - 72) =     15.25237  eV     1   --> B_2  D_4  S_4  
     e( 73 - 73) =     15.69364  eV     1   --> A_1  D_1  S_1  
     e( 74 - 74) =     15.99147  eV     1   --> B_1  D_3  S_3  
     e( 75 - 75) =     16.64392  eV     1   --> B_1  D_3  S_3  
     e( 76 - 76) =     16.70606  eV     1   --> A_2  D_2  S_2  
     e( 77 - 77) =     17.13242  eV     1   --> A_1  D_1  S_1  
     e( 78 - 78) =     17.37006  eV     1   --> B_1  D_3  S_3  
     e( 79 - 79) =     17.45417  eV     1   --> B_2  D_4  S_4  
     e( 80 - 80) =     17.50429  eV     1   --> A_2  D_2  S_2  
     e( 81 - 81) =     18.28860  eV     1   --> B_1  D_3  S_3  
     e( 82 - 82) =     18.38614  eV     1   --> A_2  D_2  S_2  
     e( 83 - 83) =     18.43192  eV     1   --> A_1  D_1  S_1  
     e( 84 - 84) =     18.64584  eV     1   --> A_1  D_1  S_1  
     e( 85 - 85) =     19.04116  eV     1   --> B_1  D_3  S_3  
     e( 86 - 86) =     19.09509  eV     1   --> A_1  D_1  S_1  
     e( 87 - 87) =     19.15304  eV     1   --> B_2  D_4  S_4  
     e( 88 - 88) =     19.52967  eV     1   --> B_1  D_3  S_3  
     e( 89 - 89) =     19.58248  eV     1   --> B_2  D_4  S_4  
     e( 90 - 90) =     19.63294  eV     1   --> A_2  D_2  S_2  
     e( 91 - 91) =     19.66781  eV     1   --> A_1  D_1  S_1  
     e( 92 - 92) =     19.88968  eV     1   --> B_1  D_3  S_3  
     e( 93 - 93) =     19.89706  eV     1   --> A_2  D_2  S_2  
     e( 94 - 94) =     20.10737  eV     1   --> A_1  D_1  S_1  

 **************************************************************************

 **************************************************************************

                    xk=(   0.07500,   0.00000,   0.00000  )

     Band symmetry, C_2v (mm2)  point group:

     e(  1 -  2) =   -101.28457  eV     2   --> A_1  D_1  S_1  
     e(  1 -  2) =   -101.28457  eV     2   --> B_1  D_3  S_3  
     e(  3 -  3) =   -100.92085  eV     1   --> A_1  D_1  S_1  
     e(  4 -  5) =    -59.25879  eV     2   --> A_2  D_2  S_2  
     e(  4 -  5) =    -59.25879  eV     2   --> B_2  D_4  S_4  
     e(  6 -  7) =    -59.25328  eV     2   --> A_1  D_1  S_1  
     e(  6 -  7) =    -59.25328  eV     2   --> B_1  D_3  S_3  
     e(  8 -  8) =    -58.91173  eV     1   --> B_1  D_3  S_3  
     e(  9 -  9) =    -58.86100  eV     1   --> A_1  D_1  S_1  
     e( 10 - 10) =    -58.86019  eV     1   --> B_1  D_3  S_3  
     e( 11 - 11) =    -58.69825  eV     1   --> B_2  D_4  S_4  
     e( 12 - 12) =    -58.69813  eV     1   --> A_1  D_1  S_1  
     e( 13 - 13) =    -30.76944  eV     1   --> A_1  D_1  S_1  
     e( 14 - 14) =    -16.24395  eV     1   --> A_1  D_1  S_1  
     e( 15 - 15) =    -16.23143  eV     1   --> B_1  D_3  S_3  
     e( 16 - 16) =    -11.28988  eV     1   --> B_1  D_3  S_3  
     e( 17 - 17) =    -10.83790  eV     1   --> A_1  D_1  S_1  
     e( 18 - 18) =    -10.80107  eV     1   --> B_2  D_4  S_4  
     e( 19 - 19) =     -7.74396  eV     1   --> A_1  D_1  S_1  
     e( 20 - 20) =     -6.88931  eV     1   --> B_1  D_3  S_3  
     e( 21 - 21) =     -6.73450  eV     1   --> A_1  D_1  S_1  
     e( 22 - 22) =     -6.53294  eV     1   --> A_1  D_1  S_1  
     e( 23 - 23) =     -6.46106  eV     1   --> B_1  D_3  S_3  
     e( 24 - 24) =     -6.29358  eV     1   --> B_1  D_3  S_3  
     e( 25 - 25) =     -1.64513  eV     1   --> A_1  D_1  S_1  
     e( 26 - 26) =     -1.38306  eV     1   --> B_1  D_3  S_3  
     e( 27 - 27) =     -1.11278  eV     1   --> A_1  D_1  S_1  
     e( 28 - 28) =     -1.09915  eV     1   --> B_2  D_4  S_4  
     e( 29 - 29) =     -1.09423  eV     1   --> B_1  D_3  S_3  
     e( 30 - 30) =     -1.08602  eV     1   --> A_2  D_2  S_2  
     e( 31 - 31) =      5.02229  eV     1   --> A_1  D_1  S_1  
     e( 32 - 32) =      5.28820  eV     1   --> B_1  D_3  S_3  
     e( 33 - 33) =      5.33547  eV     1   --> A_2  D_2  S_2  
     e( 34 - 34) =      5.45969  eV     1   --> A_1  D_1  S_1  
     e( 35 - 35) =      5.60082  eV     1   --> A_1  D_1  S_1  
     e( 36 - 36) =      5.66194  eV     1   --> B_2  D_4  S_4  
     e( 37 - 37) =      6.43768  eV     1   --> B_1  D_3  S_3  
     e( 38 - 38) =      6.55521  eV     1   --> A_1  D_1  S_1  
     e( 39 - 39) =      6.91551  eV     1   --> B_1  D_3  S_3  
     e( 40 - 40) =      6.92066  eV     1   --> A_2  D_2  S_2  
     e( 41 - 41) =      7.38898  eV     1   --> B_1  D_3  S_3  
     e( 42 - 42) =      7.45785  eV     1   --> B_2  D_4  S_4  
     e( 43 - 43) =      7.47972  eV     1   --> A_2  D_2  S_2  
     e( 44 - 44) =      7.54896  eV     1   --> A_1  D_1  S_1  
     e( 45 - 45) =      7.70380  eV     1   --> B_1  D_3  S_3  
     e( 46 - 46) =      7.80394  eV     1   --> B_2  D_4  S_4  
     e( 47 - 47) =      7.81176  eV     1   --> A_1  D_1  S_1  
     e( 48 - 48) =      7.90481  eV     1   --> A_2  D_2  S_2  
     e( 49 - 49) =      7.93640  eV     1   --> A_1  D_1  S_1  
     e( 50 - 50) =      8.03077  eV     1   --> B_1  D_3  S_3  
     e( 51 - 51) =      8.13914  eV     1   --> A_1  D_1  S_1  
     e( 52 - 52) =      8.19183  eV     1   --> B_2  D_4  S_4  
     e( 53 - 53) =      8.20256  eV     1   --> B_2  D_4  S_4  
     e( 54 - 54) =      8.30719  eV     1   --> B_1  D_3  S_3  
     e( 55 - 55) =      8.47170  eV     1   --> A_1  D_1  S_1  
     e( 56 - 56) =      8.48099  eV     1   --> A_2  D_2  S_2  
     e( 57 - 57) =      8.53873  eV     1   --> A_1  D_1  S_1  
     e( 58 - 58) =      8.91841  eV     1   --> B_2  D_4  S_4  
     e( 59 - 59) =      9.06946  eV     1   --> A_1  D_1  S_1  
     e( 60 - 60) =      9.08676  eV     1   --> B_1  D_3  S_3  
     e( 61 - 61) =      9.28187  eV     1   --> B_1  D_3  S_3  
     e( 62 - 62) =      9.68413  eV     1   --> B_1  D_3  S_3  
     e( 63 - 63) =      9.68892  eV     1   --> A_2  D_2  S_2  
     e( 64 - 64) =     12.27660  eV     1   --> A_1  D_1  S_1  
     e( 65 - 65) =     13.00495  eV     1   --> A_1  D_1  S_1  
     e( 66 - 66) =     13.10335  eV     1   --> A_1  D_1  S_1  
     e( 67 - 67) =     13.34555  eV     1   --> B_1  D_3  S_3  
     e( 68 - 68) =     14.36860  eV     1   --> A_1  D_1  S_1  
     e( 69 - 69) =     14.97509  eV     1   --> B_1  D_3  S_3  
     e( 70 - 70) =     15.01944  eV     1   --> A_1  D_1  S_1  
     e( 71 - 71) =     15.16641  eV     1   --> B_2  D_4  S_4  
     e( 72 - 72) =     15.24792  eV     1   --> B_2  D_4  S_4  
     e( 73 - 73) =     15.76072  eV     1   --> A_1  D_1  S_1  
     e( 74 - 74) =     16.01205  eV     1   --> B_1  D_3  S_3  
     e( 75 - 75) =     16.58884  eV     1   --> B_1  D_3  S_3  
     e( 76 - 76) =     16.70090  eV     1   --> A_2  D_2  S_2  
     e( 77 - 77) =     17.17067  eV     1   --> A_1  D_1  S_1  
     e( 78 - 78) =     17.46811  eV     1   --> B_1  D_3  S_3  
     e( 79 - 79) =     17.49172  eV     1   --> B_2  D_4  S_4  
     e( 80 - 80) =     17.56094  eV     1   --> A_2  D_2  S_2  
     e( 81 - 81) =     18.23710  eV     1   --> B_1  D_3  S_3  
     e( 82 - 82) =     18.36267  eV     1   --> A_1  D_1  S_1  
     e( 83 - 83) =     18.38328  eV     1   --> A_2  D_2  S_2  
     e( 84 - 84) =     18.67089  eV     1   --> A_1  D_1  S_1  
     e( 85 - 85) =     19.04360  eV     1   --> A_1  D_1  S_1  
     e( 86 - 86) =     19.08404  eV     1   --> B_1  D_3  S_3  
     e( 87 - 87) =     19.16544  eV     1   --> B_2  D_4  S_4  
     e( 88 - 88) =     19.54026  eV     1   --> B_1  D_3  S_3  
     e( 89 - 89) =     19.55570  eV     1   --> B_2  D_4  S_4  
     e( 90 - 90) =     19.61668  eV     1   --> A_2  D_2  S_2  
     e( 91 - 91) =     19.67515  eV     1   --> A_1  D_1  S_1  
     e( 92 - 92) =     19.87651  eV     1   --> B_1  D_3  S_3  
     e( 93 - 93) =     19.89712  eV     1   --> A_2  D_2  S_2  
     e( 94 - 94) =     20.08474  eV     1   --> A_1  D_1  S_1  

 **************************************************************************

 **************************************************************************

                    xk=(   0.10000,   0.00000,   0.00000  )

     Band symmetry, C_2v (mm2)  point group:

     e(  1 -  2) =   -101.28457  eV     2   --> A_1  D_1  S_1  
     e(  1 -  2) =   -101.28457  eV     2   --> B_1  D_3  S_3  
     e(  3 -  3) =   -100.92085  eV     1   --> A_1  D_1  S_1  
     e(  4 -  5) =    -59.25879  eV     2   --> A_2  D_2  S_2  
     e(  4 -  5) =    -59.25879  eV     2   --> B_2  D_4  S_4  
     e(  6 -  7) =    -59.25328  eV     2   --> A_1  D_1  S_1  
     e(  6 -  7) =    -59.25328  eV     2   --> B_1  D_3  S_3  
     e(  8 -  8) =    -58.91173  eV     1   --> B_1  D_3  S_3  
     e(  9 -  9) =    -58.86100  eV     1   --> A_1  D_1  S_1  
     e( 10 - 10) =    -58.86019  eV     1   --> B_1  D_3  S_3  
     e( 11 - 11) =    -58.69825  eV     1   --> B_2  D_4  S_4  
     e( 12 - 12) =    -58.69814  eV     1   --> A_1  D_1  S_1  
     e( 13 - 13) =    -30.76893  eV     1   --> A_1  D_1  S_1  
     e( 14 - 14) =    -16.23943  eV     1   --> A_1  D_1  S_1  
     e( 15 - 15) =    -16.22698  eV     1   --> B_1  D_3  S_3  
     e( 16 - 16) =    -11.28162  eV     1   --> B_1  D_3  S_3  
     e( 17 - 17) =    -10.86219  eV     1   --> A_1  D_1  S_1  
     e( 18 - 18) =    -10.80032  eV     1   --> B_2  D_4  S_4  
     e( 19 - 19) =     -7.71438  eV     1   --> A_1  D_1  S_1  
     e( 20 - 20) =     -6.89182  eV     1   --> B_1  D_3  S_3  
     e( 21 - 21) =     -6.74843  eV     1   --> A_1  D_1  S_1  
     e( 22 - 22) =     -6.52754  eV     1   --> A_1  D_1  S_1  
     e( 23 - 23) =     -6.47452  eV     1   --> B_1  D_3  S_3  
     e( 24 - 24) =     -6.30350  eV     1   --> B_1  D_3  S_3  
     e( 25 - 25) =     -1.64336  eV     1   --> A_1  D_1  S_1  
     e( 26 - 26) =     -1.38499  eV     1   --> B_1  D_3  S_3  
     e( 27 - 27) =     -1.11526  eV     1   --> A_1  D_1  S_1  
     e( 28 - 28) =     -1.09269  eV     1   --> B_1  D_3  S_3  
     e( 29 - 29) =     -1.09071  eV     1   --> B_2  D_4  S_4  
     e( 30 - 30) =     -1.07743  eV     1   --> A_2  D_2  S_2  
     e( 31 - 31) =      5.00650  eV     1   --> A_1  D_1  S_1  
     e( 32 - 32) =      5.26052  eV     1   --> B_1  D_3  S_3  
     e( 33 - 33) =      5.34864  eV     1   --> A_2  D_2  S_2  
     e( 34 - 34) =      5.43387  eV     1   --> A_1  D_1  S_1  
     e( 35 - 35) =      5.58946  eV     1   --> A_1  D_1  S_1  
     e( 36 - 36) =      5.66601  eV     1   --> B_2  D_4  S_4  
     e( 37 - 37) =      6.42418  eV     1   --> B_1  D_3  S_3  
     e( 38 - 38) =      6.55032  eV     1   --> A_1  D_1  S_1  
     e( 39 - 39) =      6.88892  eV     1   --> B_1  D_3  S_3  
     e( 40 - 40) =      6.89753  eV     1   --> A_2  D_2  S_2  
     e( 41 - 41) =      7.33629  eV     1   --> B_1  D_3  S_3  
     e( 42 - 42) =      7.39234  eV     1   --> B_2  D_4  S_4  
     e( 43 - 43) =      7.41049  eV     1   --> A_2  D_2  S_2  
     e( 44 - 44) =      7.54752  eV     1   --> A_1  D_1  S_1  
     e( 45 - 45) =      7.70184  eV     1   --> B_1  D_3  S_3  
     e( 46 - 46) =      7.78381  eV     1   --> B_2  D_4  S_4  
     e( 47 - 47) =      7.79150  eV     1   --> A_1  D_1  S_1  
     e( 48 - 48) =      7.94002  eV     1   --> A_1  D_1  S_1  
     e( 49 - 49) =      7.94066  eV     1   --> A_2  D_2  S_2  
     e( 50 - 50) =      8.04600  eV     1   --> B_1  D_3  S_3  
     e( 51 - 51) =      8.13567  eV     1   --> A_1  D_1  S_1  
     e( 52 - 52) =      8.19591  eV     1   --> B_2  D_4  S_4  
     e( 53 - 53) =      8.21178  eV     1   --> B_2  D_4  S_4  
     e( 54 - 54) =      8.28323  eV     1   --> B_1  D_3  S_3  
     e( 55 - 55) =      8.44965  eV     1   --> A_1  D_1  S_1  
     e( 56 - 56) =      8.49044  eV     1   --> A_1  D_1  S_1  
     e( 57 - 57) =      8.50211  eV     1   --> A_2  D_2  S_2  
     e( 58 - 58) =      8.93550  eV     1   --> B_2  D_4  S_4  
     e( 59 - 59) =      9.09223  eV     1   --> B_1  D_3  S_3  
     e( 60 - 60) =      9.13790  eV     1   --> A_1  D_1  S_1  
     e( 61 - 61) =      9.38123  eV     1   --> B_1  D_3  S_3  
     e( 62 - 62) =      9.66265  eV     1   --> B_1  D_3  S_3  
     e( 63 - 63) =      9.66924  eV     1   --> A_2  D_2  S_2  
     e( 64 - 64) =     12.32875  eV     1   --> A_1  D_1  S_1  
     e( 65 - 65) =     13.06435  eV     1   --> A_1  D_1  S_1  
     e( 66 - 66) =     13.13301  eV     1   --> A_1  D_1  S_1  
     e( 67 - 67) =     13.42603  eV     1   --> B_1  D_3  S_3  
     e( 68 - 68) =     14.38046  eV     1   --> A_1  D_1  S_1  
     e( 69 - 69) =     14.98251  eV     1   --> A_1  D_1  S_1  
     e( 70 - 70) =     15.06751  eV     1   --> B_1  D_3  S_3  
     e( 71 - 71) =     15.18822  eV     1   --> B_2  D_4  S_4  
     e( 72 - 72) =     15.24805  eV     1   --> B_2  D_4  S_4  
     e( 73 - 73) =     15.84244  eV     1   --> A_1  D_1  S_1  
     e( 74 - 74) =     16.03875  eV     1   --> B_1  D_3  S_3  
     e( 75 - 75) =     16.53019  eV     1   --> B_1  D_3  S_3  
     e( 76 - 76) =     16.69682  eV     1   --> A_2  D_2  S_2  
     e( 77 - 77) =     17.20971  eV     1   --> A_1  D_1  S_1  
     e( 78 - 78) =     17.54232  eV     1   --> B_2  D_4  S_4  
     e( 79 - 79) =     17.58454  eV     1   --> B_1  D_3  S_3  
     e( 80 - 80) =     17.63453  eV     1   --> A_2  D_2  S_2  
     e( 81 - 81) =     18.18044  eV     1   --> B_1  D_3  S_3  
     e( 82 - 82) =     18.25549  eV     1   --> A_1  D_1  S_1  
     e( 83 - 83) =     18.37950  eV     1   --> A_2  D_2  S_2  
     e( 84 - 84) =     18.72038  eV     1   --> A_1  D_1  S_1  
     e( 85 - 85) =     18.99228  eV     1   --> A_1  D_1  S_1  
     e( 86 - 86) =     19.13258  eV     1   --> B_1  D_3  S_3  
     e( 87 - 87) =     19.17938  eV     1   --> B_2  D_4  S_4  
     e( 88 - 88) =     19.52161  eV     1   --> B_2  D_4  S_4  
     e( 89 - 89) =     19.55422  eV     1   --> B_1  D_3  S_3  
     e( 90 - 90) =     19.59535  eV     1   --> A_2  D_2  S_2  
     e( 91 - 91) =     19.67273  eV     1   --> A_1  D_1  S_1  
     e( 92 - 92) =     19.85894  eV     1   --> B_1  D_3  S_3  
     e( 93 - 93) =     19.89715  eV     1   --> A_2  D_2  S_2  
     e( 94 - 94) =     20.05605  eV     1   --> A_1  D_1  S_1  

 **************************************************************************

 **************************************************************************

                    xk=(   0.12500,   0.00000,   0.00000  )

     Band symmetry, C_2v (mm2)  point group:

     e(  1 -  2) =   -101.28457  eV     2   --> A_1  D_1  S_1  
     e(  1 -  2) =   -101.28457  eV     2   --> B_1  D_3  S_3  
     e(  3 -  3) =   -100.92085  eV     1   --> A_1  D_1  S_1  
     e(  4 -  5) =    -59.25879  eV     2   --> A_2  D_2  S_2  
     e(  4 -  5) =    -59.25879  eV     2   --> B_2  D_4  S_4  
     e(  6 -  7) =    -59.25329  eV     2   --> A_1  D_1  S_1  
     e(  6 -  7) =    -59.25329  eV     2   --> B_1  D_3  S_3  
     e(  8 -  8) =    -58.91173  eV     1   --> B_1  D_3  S_3  
     e(  9 -  9) =    -58.86100  eV     1   --> A_1  D_1  S_1  
     e( 10 - 10) =    -58.86019  eV     1   --> B_1  D_3  S_3  
     e( 11 - 11) =    -58.69825  eV     1   --> B_2  D_4  S_4  
     e( 12 - 12) =    -58.69814  eV     1   --> A_1  D_1  S_1  
     e( 13 - 13) =    -30.76829  eV     1   --> A_1  D_1  S_1  
     e( 14 - 14) =    -16.23379  eV     1   --> A_1  D_1  S_1  
     e( 15 - 15) =    -16.22143  eV     1   --> B_1  D_3  S_3  
     e( 16 - 16) =    -11.27129  eV     1   --> B_1  D_3  S_3  
     e( 17 - 17) =    -10.89183  eV     1   --> A_1  D_1  S_1  
     e( 18 - 18) =    -10.79939  eV     1   --> B_2  D_4  S_4  
     e( 19 - 19) =     -7.67783  eV     1   --> A_1  D_1  S_1  
     e( 20 - 20) =     -6.89603  eV     1   --> B_1  D_3  S_3  
     e( 21 - 21) =     -6.76594  eV     1   --> A_1  D_1  S_1  
     e( 22 - 22) =     -6.52097  eV     1   --> A_1  D_1  S_1  
     e( 23 - 23) =     -6.49104  eV     1   --> B_1  D_3  S_3  
     e( 24 - 24) =     -6.31496  eV     1   --> B_1  D_3  S_3  
     e( 25 - 25) =     -1.64105  eV     1   --> A_1  D_1  S_1  
     e( 26 - 26) =     -1.38710  eV     1   --> B_1  D_3  S_3  
     e( 27 - 27) =     -1.11826  eV     1   --> A_1  D_1  S_1  
     e( 28 - 28) =     -1.09093  eV     1   --> B_1  D_3  S_3  
     e( 29 - 29) =     -1.08016  eV     1   --> B_2  D_4  S_4  
     e( 30 - 30) =     -1.06671  eV     1   --> A_2  D_2  S_2  
     e( 31 - 31) =      4.98391  eV     1   --> A_1  D_1  S_1  
     e( 32 - 32) =      5.22419  eV     1   --> B_1  D_3  S_3  
     e( 33 - 33) =      5.36547  eV     1   --> A_2  D_2  S_2  
     e( 34 - 34) =      5.39072  eV     1   --> A_1  D_1  S_1  
     e( 35 - 35) =      5.59212  eV     1   --> A_1  D_1  S_1  
     e( 36 - 36) =      5.67134  eV     1   --> B_2  D_4  S_4  
     e( 37 - 37) =      6.40641  eV     1   --> B_1  D_3  S_3  
     e( 38 - 38) =      6.54070  eV     1   --> A_1  D_1  S_1  
     e( 39 - 39) =      6.85628  eV     1   --> B_1  D_3  S_3  
     e( 40 - 40) =      6.86834  eV     1   --> A_2  D_2  S_2  
     e( 41 - 41) =      7.29017  eV     1   --> B_1  D_3  S_3  
     e( 42 - 42) =      7.31978  eV     1   --> B_2  D_4  S_4  
     e( 43 - 43) =      7.33738  eV     1   --> A_2  D_2  S_2  
     e( 44 - 44) =      7.54857  eV     1   --> A_1  D_1  S_1  
     e( 45 - 45) =      7.70418  eV     1   --> B_1  D_3  S_3  
     e( 46 - 46) =      7.75216  eV     1   --> B_2  D_4  S_4  
     e( 47 - 47) =      7.75638  eV     1   --> A_1  D_1  S_1  
     e( 48 - 48) =      7.94972  eV     1   --> A_1  D_1  S_1  
     e( 49 - 49) =      7.97201  eV     1   --> A_2  D_2  S_2  
     e( 50 - 50) =      7.97595  eV     1   --> B_1  D_3  S_3  
     e( 51 - 51) =      8.13915  eV     1   --> A_1  D_1  S_1  
     e( 52 - 52) =      8.19340  eV     1   --> B_2  D_4  S_4  
     e( 53 - 53) =      8.22764  eV     1   --> B_2  D_4  S_4  
     e( 54 - 54) =      8.34831  eV     1   --> B_1  D_3  S_3  
     e( 55 - 55) =      8.36992  eV     1   --> A_1  D_1  S_1  
     e( 56 - 56) =      8.50062  eV     1   --> A_1  D_1  S_1  
     e( 57 - 57) =      8.52834  eV     1   --> A_2  D_2  S_2  
     e( 58 - 58) =      8.95793  eV     1   --> B_2  D_4  S_4  
     e( 59 - 59) =      9.09719  eV     1   --> B_1  D_3  S_3  
     e( 60 - 60) =      9.20386  eV     1   --> A_1  D_1  S_1  
     e( 61 - 61) =      9.47015  eV     1   --> B_1  D_3  S_3  
     e( 62 - 62) =      9.64516  eV     1   --> B_1  D_3  S_3  
     e( 63 - 63) =      9.64558  eV     1   --> A_2  D_2  S_2  
     e( 64 - 64) =     12.37898  eV     1   --> A_1  D_1  S_1  
     e( 65 - 65) =     13.10434  eV     1   --> A_1  D_1  S_1  
     e( 66 - 66) =     13.21341  eV     1   --> A_1  D_1  S_1  
     e( 67 - 67) =     13.52836  eV     1   --> B_1  D_3  S_3  
     e( 68 - 68) =     14.37529  eV     1   --> A_1  D_1  S_1  
     e( 69 - 69) =     14.97844  eV     1   --> A_1  D_1  S_1  
     e( 70 - 70) =     15.18233  eV     1   --> B_1  D_3  S_3  
     e( 71 - 71) =     15.19682  eV     1   --> B_2  D_4  S_4  
     e( 72 - 72) =     15.26825  eV     1   --> B_2  D_4  S_4  
     e( 73 - 73) =     15.93554  eV     1   --> A_1  D_1  S_1  
     e( 74 - 74) =     16.07013  eV     1   --> B_1  D_3  S_3  
     e( 75 - 75) =     16.47224  eV     1   --> B_1  D_3  S_3  
     e( 76 - 76) =     16.69546  eV     1   --> A_2  D_2  S_2  
     e( 77 - 77) =     17.24149  eV     1   --> A_1  D_1  S_1  
     e( 78 - 78) =     17.60415  eV     1   --> B_2  D_4  S_4  
     e( 79 - 79) =     17.71291  eV     1   --> B_1  D_3  S_3  
     e( 80 - 80) =     17.72087  eV     1   --> A_2  D_2  S_2  
     e( 81 - 81) =     18.12127  eV     1   --> A_1  D_1  S_1  
     e( 82 - 82) =     18.12568  eV     1   --> B_1  D_3  S_3  
     e( 83 - 83) =     18.37503  eV     1   --> A_2  D_2  S_2  
     e( 84 - 84) =     18.78751  eV     1   --> A_1  D_1  S_1  
     e( 85 - 85) =     18.94832  eV     1   --> A_1  D_1  S_1  
     e( 86 - 86) =     19.18286  eV     1   --> B_1  D_3  S_3  
     e( 87 - 87) =     19.18954  eV     1   --> B_2  D_4  S_4  
     e( 88 - 88) =     19.48528  eV     1   --> B_2  D_4  S_4  
     e( 89 - 89) =     19.56991  eV     1   --> B_1  D_3  S_3  
     e( 90 - 90) =     19.57025  eV     1   --> A_2  D_2  S_2  
     e( 91 - 91) =     19.65989  eV     1   --> A_1  D_1  S_1  
     e( 92 - 92) =     19.83840  eV     1   --> B_1  D_3  S_3  
     e( 93 - 93) =     19.89713  eV     1   --> A_2  D_2  S_2  
     e( 94 - 94) =     20.02441  eV     1   --> A_1  D_1  S_1  

 **************************************************************************

 **************************************************************************

                    xk=(   0.15000,   0.00000,   0.00000  )

     Band symmetry, C_2v (mm2)  point group:

     e(  1 -  2) =   -101.28457  eV     2   --> A_1  D_1  S_1  
     e(  1 -  2) =   -101.28457  eV     2   --> B_1  D_3  S_3  
     e(  3 -  3) =   -100.92085  eV     1   --> A_1  D_1  S_1  
     e(  4 -  5) =    -59.25878  eV     2   --> A_2  D_2  S_2  
     e(  4 -  5) =    -59.25878  eV     2   --> B_2  D_4  S_4  
     e(  6 -  7) =    -59.25329  eV     2   --> A_1  D_1  S_1  
     e(  6 -  7) =    -59.25329  eV     2   --> B_1  D_3  S_3  
     e(  8 -  8) =    -58.91172  eV     1   --> B_1  D_3  S_3  
     e(  9 -  9) =    -58.86100  eV     1   --> A_1  D_1  S_1  
     e( 10 - 10) =    -58.86019  eV     1   --> B_1  D_3  S_3  
     e( 11 - 12) =    -58.69825  eV     2   --> A_1  D_1  S_1  
     e( 11 - 12) =    -58.69825  eV     2   --> B_2  D_4  S_4  
     e( 13 - 13) =    -30.76754  eV     1   --> A_1  D_1  S_1  
     e( 14 - 14) =    -16.22717  eV     1   --> A_1  D_1  S_1  
     e( 15 - 15) =    -16.21491  eV     1   --> B_1  D_3  S_3  
     e( 16 - 16) =    -11.25910  eV     1   --> B_1  D_3  S_3  
     e( 17 - 17) =    -10.92582  eV     1   --> A_1  D_1  S_1  
     e( 18 - 18) =    -10.79829  eV     1   --> B_2  D_4  S_4  
     e( 19 - 19) =     -7.63529  eV     1   --> A_1  D_1  S_1  
     e( 20 - 20) =     -6.90257  eV     1   --> B_1  D_3  S_3  
     e( 21 - 21) =     -6.78663  eV     1   --> A_1  D_1  S_1  
     e( 22 - 22) =     -6.51358  eV     1   --> A_1  D_1  S_1  
     e( 23 - 23) =     -6.50993  eV     1   --> B_1  D_3  S_3  
     e( 24 - 24) =     -6.32717  eV     1   --> B_1  D_3  S_3  
     e( 25 - 25) =     -1.63821  eV     1   --> A_1  D_1  S_1  
     e( 26 - 26) =     -1.38916  eV     1   --> B_1  D_3  S_3  
     e( 27 - 27) =     -1.12166  eV     1   --> A_1  D_1  S_1  
     e( 28 - 28) =     -1.08908  eV     1   --> B_1  D_3  S_3  
     e( 29 - 29) =     -1.06774  eV     1   --> B_2  D_4  S_4  
     e( 30 - 30) =     -1.05407  eV     1   --> A_2  D_2  S_2  
     e( 31 - 31) =      4.95268  eV     1   --> A_1  D_1  S_1  
     e( 32 - 32) =      5.17918  eV     1   --> B_1  D_3  S_3  
     e( 33 - 33) =      5.33892  eV     1   --> A_1  D_1  S_1  
     e( 34 - 34) =      5.38586  eV     1   --> A_2  D_2  S_2  
     e( 35 - 35) =      5.60402  eV     1   --> A_1  D_1  S_1  
     e( 36 - 36) =      5.67801  eV     1   --> B_2  D_4  S_4  
     e( 37 - 37) =      6.38435  eV     1   --> B_1  D_3  S_3  
     e( 38 - 38) =      6.52671  eV     1   --> A_1  D_1  S_1  
     e( 39 - 39) =      6.81873  eV     1   --> B_1  D_3  S_3  
     e( 40 - 40) =      6.83355  eV     1   --> A_2  D_2  S_2  
     e( 41 - 41) =      7.24282  eV     1   --> B_2  D_4  S_4  
     e( 42 - 42) =      7.25399  eV     1   --> B_1  D_3  S_3  
     e( 43 - 43) =      7.26204  eV     1   --> A_2  D_2  S_2  
     e( 44 - 44) =      7.54976  eV     1   --> A_1  D_1  S_1  
     e( 45 - 45) =      7.70733  eV     1   --> B_1  D_3  S_3  
     e( 46 - 46) =      7.71003  eV     1   --> B_2  D_4  S_4  
     e( 47 - 47) =      7.71195  eV     1   --> A_1  D_1  S_1  
     e( 48 - 48) =      7.88076  eV     1   --> B_1  D_3  S_3  
     e( 49 - 49) =      7.96074  eV     1   --> A_1  D_1  S_1  
     e( 50 - 50) =      7.99830  eV     1   --> A_2  D_2  S_2  
     e( 51 - 51) =      8.14967  eV     1   --> A_1  D_1  S_1  
     e( 52 - 52) =      8.18932  eV     1   --> B_2  D_4  S_4  
     e( 53 - 53) =      8.24355  eV     1   --> B_2  D_4  S_4  
     e( 54 - 54) =      8.29175  eV     1   --> A_1  D_1  S_1  
     e( 55 - 55) =      8.44595  eV     1   --> B_1  D_3  S_3  
     e( 56 - 56) =      8.51555  eV     1   --> A_1  D_1  S_1  
     e( 57 - 57) =      8.55875  eV     1   --> A_2  D_2  S_2  
     e( 58 - 58) =      8.98536  eV     1   --> B_2  D_4  S_4  
     e( 59 - 59) =      9.10202  eV     1   --> B_1  D_3  S_3  
     e( 60 - 60) =      9.26535  eV     1   --> A_1  D_1  S_1  
     e( 61 - 61) =      9.51964  eV     1   --> B_1  D_3  S_3  
     e( 62 - 62) =      9.61894  eV     1   --> A_2  D_2  S_2  
     e( 63 - 63) =      9.65731  eV     1   --> B_1  D_3  S_3  
     e( 64 - 64) =     12.41469  eV     1   --> A_1  D_1  S_1  
     e( 65 - 65) =     13.14815  eV     1   --> A_1  D_1  S_1  
     e( 66 - 66) =     13.32634  eV     1   --> A_1  D_1  S_1  
     e( 67 - 67) =     13.65153  eV     1   --> B_1  D_3  S_3  
     e( 68 - 68) =     14.35185  eV     1   --> A_1  D_1  S_1  
     e( 69 - 69) =     15.01413  eV     1   --> A_1  D_1  S_1  
     e( 70 - 70) =     15.18945  eV     1   --> B_2  D_4  S_4  
     e( 71 - 71) =     15.31158  eV     1   --> B_2  D_4  S_4  
     e( 72 - 72) =     15.31621  eV     1   --> B_1  D_3  S_3  
     e( 73 - 73) =     16.03722  eV     1   --> A_1  D_1  S_1  
     e( 74 - 74) =     16.10514  eV     1   --> B_1  D_3  S_3  
     e( 75 - 75) =     16.41693  eV     1   --> B_1  D_3  S_3  
     e( 76 - 76) =     16.69793  eV     1   --> A_2  D_2  S_2  
     e( 77 - 77) =     17.26137  eV     1   --> A_1  D_1  S_1  
     e( 78 - 78) =     17.67510  eV     1   --> B_2  D_4  S_4  
     e( 79 - 79) =     17.81565  eV     1   --> A_2  D_2  S_2  
     e( 80 - 80) =     17.84912  eV     1   --> B_1  D_3  S_3  
     e( 81 - 81) =     17.97244  eV     1   --> A_1  D_1  S_1  
     e( 82 - 82) =     18.07720  eV     1   --> B_1  D_3  S_3  
     e( 83 - 83) =     18.37017  eV     1   --> A_2  D_2  S_2  
     e( 84 - 84) =     18.84118  eV     1   --> A_1  D_1  S_1  
     e( 85 - 85) =     18.93773  eV     1   --> A_1  D_1  S_1  
     e( 86 - 86) =     19.18604  eV     1   --> B_2  D_4  S_4  
     e( 87 - 87) =     19.23341  eV     1   --> B_1  D_3  S_3  
     e( 88 - 88) =     19.45612  eV     1   --> B_2  D_4  S_4  
     e( 89 - 89) =     19.54294  eV     1   --> A_2  D_2  S_2  
     e( 90 - 90) =     19.58349  eV     1   --> B_1  D_3  S_3  
     e( 91 - 91) =     19.63959  eV     1   --> A_1  D_1  S_1  
     e( 92 - 92) =     19.81841  eV     1   --> B_1  D_3  S_3  
     e( 93 - 93) =     19.89704  eV     1   --> A_2  D_2  S_2  
     e( 94 - 94) =     19.99172  eV     1   --> A_1  D_1  S_1  

 **************************************************************************

 **************************************************************************

                    xk=(   0.17500,   0.00000,   0.00000  )

     Band symmetry, C_2v (mm2)  point group:

     e(  1 -  2) =   -101.28457  eV     2   --> A_1  D_1  S_1  
     e(  1 -  2) =   -101.28457  eV     2   --> B_1  D_3  S_3  
     e(  3 -  3) =   -100.92085  eV     1   --> A_1  D_1  S_1  
     e(  4 -  5) =    -59.25878  eV     2   --> A_2  D_2  S_2  
     e(  4 -  5) =    -59.25878  eV     2   --> B_2  D_4  S_4  
     e(  6 -  7) =    -59.25330  eV     2   --> A_1  D_1  S_1  
     e(  6 -  7) =    -59.25330  eV     2   --> B_1  D_3  S_3  
     e(  8 -  8) =    -58.91172  eV     1   --> B_1  D_3  S_3  
     e(  9 -  9) =    -58.86100  eV     1   --> A_1  D_1  S_1  
     e( 10 - 10) =    -58.86019  eV     1   --> B_1  D_3  S_3  
     e( 11 - 12) =    -58.69825  eV     2   --> A_1  D_1  S_1  
     e( 11 - 12) =    -58.69825  eV     2   --> B_2  D_4  S_4  
     e( 13 - 13) =    -30.76670  eV     1   --> A_1  D_1  S_1  
     e( 14 - 14) =    -16.21972  eV     1   --> A_1  D_1  S_1  
     e( 15 - 15) =    -16.20758  eV     1   --> B_1  D_3  S_3  
     e( 16 - 16) =    -11.24529  eV     1   --> B_1  D_3  S_3  
     e( 17 - 17) =    -10.96304  eV     1   --> A_1  D_1  S_1  
     e( 18 - 18) =    -10.79707  eV     1   --> B_2  D_4  S_4  
     e( 19 - 19) =     -7.58780  eV     1   --> A_1  D_1  S_1  
     e( 20 - 20) =     -6.91215  eV     1   --> B_1  D_3  S_3  
     e( 21 - 21) =     -6.81001  eV     1   --> A_1  D_1  S_1  
     e( 22 - 22) =     -6.53034  eV     1   --> B_1  D_3  S_3  
     e( 23 - 23) =     -6.50581  eV     1   --> A_1  D_1  S_1  
     e( 24 - 24) =     -6.33936  eV     1   --> B_1  D_3  S_3  
     e( 25 - 25) =     -1.63486  eV     1   --> A_1  D_1  S_1  
     e( 26 - 26) =     -1.39094  eV     1   --> B_1  D_3  S_3  
     e( 27 - 27) =     -1.12535  eV     1   --> A_1  D_1  S_1  
     e( 28 - 28) =     -1.08729  eV     1   --> B_1  D_3  S_3  
     e( 29 - 29) =     -1.05371  eV     1   --> B_2  D_4  S_4  
     e( 30 - 30) =     -1.03979  eV     1   --> A_2  D_2  S_2  
     e( 31 - 31) =      4.91093  eV     1   --> A_1  D_1  S_1  
     e( 32 - 32) =      5.12590  eV     1   --> B_1  D_3  S_3  
     e( 33 - 33) =      5.28721  eV     1   --> A_1  D_1  S_1  
     e( 34 - 34) =      5.40972  eV     1   --> A_2  D_2  S_2  
     e( 35 - 35) =      5.61988  eV     1   --> A_1  D_1  S_1  
     e( 36 - 36) =      5.68610  eV     1   --> B_2  D_4  S_4  
     e( 37 - 37) =      6.35822  eV     1   --> B_1  D_3  S_3  
     e( 38 - 38) =      6.51002  eV     1   --> A_1  D_1  S_1  
     e( 39 - 39) =      6.77766  eV     1   --> B_1  D_3  S_3  
     e( 40 - 40) =      6.79376  eV     1   --> A_2  D_2  S_2  
     e( 41 - 41) =      7.16338  eV     1   --> B_2  D_4  S_4  
     e( 42 - 42) =      7.18555  eV     1   --> A_2  D_2  S_2  
     e( 43 - 43) =      7.22865  eV     1   --> B_1  D_3  S_3  
     e( 44 - 44) =      7.54485  eV     1   --> A_1  D_1  S_1  
     e( 45 - 45) =      7.65915  eV     1   --> B_2  D_4  S_4  
     e( 46 - 46) =      7.66627  eV     1   --> A_1  D_1  S_1  
     e( 47 - 47) =      7.70543  eV     1   --> B_1  D_3  S_3  
     e( 48 - 48) =      7.79073  eV     1   --> B_1  D_3  S_3  
     e( 49 - 49) =      7.96478  eV     1   --> A_1  D_1  S_1  
     e( 50 - 50) =      8.01977  eV     1   --> A_2  D_2  S_2  
     e( 51 - 51) =      8.16546  eV     1   --> A_1  D_1  S_1  
     e( 52 - 52) =      8.18424  eV     1   --> B_2  D_4  S_4  
     e( 53 - 53) =      8.22787  eV     1   --> A_1  D_1  S_1  
     e( 54 - 54) =      8.25809  eV     1   --> B_2  D_4  S_4  
     e( 55 - 55) =      8.53335  eV     1   --> A_1  D_1  S_1  
     e( 56 - 56) =      8.55178  eV     1   --> B_1  D_3  S_3  
     e( 57 - 57) =      8.59219  eV     1   --> A_2  D_2  S_2  
     e( 58 - 58) =      9.01704  eV     1   --> B_2  D_4  S_4  
     e( 59 - 59) =      9.10665  eV     1   --> B_1  D_3  S_3  
     e( 60 - 60) =      9.32102  eV     1   --> A_1  D_1  S_1  
     e( 61 - 61) =      9.51275  eV     1   --> B_1  D_3  S_3  
     e( 62 - 62) =      9.59037  eV     1   --> A_2  D_2  S_2  
     e( 63 - 63) =      9.71498  eV     1   --> B_1  D_3  S_3  
     e( 64 - 64) =     12.42482  eV     1   --> A_1  D_1  S_1  
     e( 65 - 65) =     13.21422  eV     1   --> A_1  D_1  S_1  
     e( 66 - 66) =     13.45518  eV     1   --> A_1  D_1  S_1  
     e( 67 - 67) =     13.79410  eV     1   --> B_1  D_3  S_3  
     e( 68 - 68) =     14.32150  eV     1   --> A_1  D_1  S_1  
     e( 69 - 69) =     15.08288  eV     1   --> A_1  D_1  S_1  
     e( 70 - 70) =     15.17588  eV     1   --> B_2  D_4  S_4  
     e( 71 - 71) =     15.36852  eV     1   --> B_2  D_4  S_4  
     e( 72 - 72) =     15.46401  eV     1   --> B_1  D_3  S_3  
     e( 73 - 73) =     16.14343  eV     1   --> B_1  D_3  S_3  
     e( 74 - 74) =     16.14371  eV     1   --> A_1  D_1  S_1  
     e( 75 - 75) =     16.36646  eV     1   --> B_1  D_3  S_3  
     e( 76 - 76) =     16.70476  eV     1   --> A_2  D_2  S_2  
     e( 77 - 77) =     17.26917  eV     1   --> A_1  D_1  S_1  
     e( 78 - 78) =     17.75291  eV     1   --> B_2  D_4  S_4  
     e( 79 - 79) =     17.81993  eV     1   --> A_1  D_1  S_1  
     e( 80 - 80) =     17.91440  eV     1   --> A_2  D_2  S_2  
     e( 81 - 81) =     17.98958  eV     1   --> B_1  D_3  S_3  
     e( 82 - 82) =     18.03698  eV     1   --> B_1  D_3  S_3  
     e( 83 - 83) =     18.36535  eV     1   --> A_2  D_2  S_2  
     e( 84 - 84) =     18.82402  eV     1   --> A_1  D_1  S_1  
     e( 85 - 85) =     19.01016  eV     1   --> A_1  D_1  S_1  
     e( 86 - 86) =     19.15671  eV     1   --> B_2  D_4  S_4  
     e( 87 - 87) =     19.28424  eV     1   --> B_1  D_3  S_3  
     e( 88 - 88) =     19.44558  eV     1   --> B_2  D_4  S_4  
     e( 89 - 89) =     19.51528  eV     1   --> A_2  D_2  S_2  
     e( 90 - 90) =     19.58720  eV     1   --> B_1  D_3  S_3  
     e( 91 - 91) =     19.61627  eV     1   --> A_1  D_1  S_1  
     e( 92 - 92) =     19.80700  eV     1   --> B_1  D_3  S_3  
     e( 93 - 93) =     19.89687  eV     1   --> A_2  D_2  S_2  
     e( 94 - 94) =     19.95867  eV     1   --> A_1  D_1  S_1  

 **************************************************************************

 **************************************************************************

                    xk=(   0.20000,   0.00000,   0.00000  )

     Band symmetry, C_2v (mm2)  point group:

     e(  1 -  2) =   -101.28457  eV     2   --> A_1  D_1  S_1  
     e(  1 -  2) =   -101.28457  eV     2   --> B_1  D_3  S_3  
     e(  3 -  3) =   -100.92085  eV     1   --> A_1  D_1  S_1  
     e(  4 -  5) =    -59.25878  eV     2   --> A_2  D_2  S_2  
     e(  4 -  5) =    -59.25878  eV     2   --> B_2  D_4  S_4  
     e(  6 -  7) =    -59.25330  eV     2   --> A_1  D_1  S_1  
     e(  6 -  7) =    -59.25330  eV     2   --> B_1  D_3  S_3  
     e(  8 -  8) =    -58.91172  eV     1   --> B_1  D_3  S_3  
     e(  9 -  9) =    -58.86099  eV     1   --> A_1  D_1  S_1  
     e( 10 - 10) =    -58.86019  eV     1   --> B_1  D_3  S_3  
     e( 11 - 12) =    -58.69825  eV     2   --> A_1  D_1  S_1  
     e( 11 - 12) =    -58.69825  eV     2   --> B_2  D_4  S_4  
     e( 13 - 13) =    -30.76579  eV     1   --> A_1  D_1  S_1  
     e( 14 - 14) =    -16.21162  eV     1   --> A_1  D_1  S_1  
     e( 15 - 15) =    -16.19961  eV     1   --> B_1  D_3  S_3  
     e( 16 - 16) =    -11.23016  eV     1   --> B_1  D_3  S_3  
     e( 17 - 17) =    -11.00240  eV     1   --> A_1  D_1  S_1  
     e( 18 - 18) =    -10.79574  eV     1   --> B_2  D_4  S_4  
     e( 19 - 19) =     -7.53646  eV     1   --> A_1  D_1  S_1  
     e( 20 - 20) =     -6.92530  eV     1   --> B_1  D_3  S_3  
     e( 21 - 21) =     -6.83545  eV     1   --> A_1  D_1  S_1  
     e( 22 - 22) =     -6.55140  eV     1   --> B_1  D_3  S_3  
     e( 23 - 23) =     -6.49814  eV     1   --> A_1  D_1  S_1  
     e( 24 - 24) =     -6.35081  eV     1   --> B_1  D_3  S_3  
     e( 25 - 25) =     -1.63102  eV     1   --> A_1  D_1  S_1  
     e( 26 - 26) =     -1.39223  eV     1   --> B_1  D_3  S_3  
     e( 27 - 27) =     -1.12920  eV     1   --> A_1  D_1  S_1  
     e( 28 - 28) =     -1.08569  eV     1   --> B_1  D_3  S_3  
     e( 29 - 29) =     -1.03838  eV     1   --> B_2  D_4  S_4  
     e( 30 - 30) =     -1.02419  eV     1   --> A_2  D_2  S_2  
     e( 31 - 31) =      4.85781  eV     1   --> A_1  D_1  S_1  
     e( 32 - 32) =      5.06530  eV     1   --> B_1  D_3  S_3  
     e( 33 - 33) =      5.24122  eV     1   --> A_1  D_1  S_1  
     e( 34 - 34) =      5.43690  eV     1   --> A_2  D_2  S_2  
     e( 35 - 35) =      5.63610  eV     1   --> A_1  D_1  S_1  
     e( 36 - 36) =      5.69567  eV     1   --> B_2  D_4  S_4  
     e( 37 - 37) =      6.32854  eV     1   --> B_1  D_3  S_3  
     e( 38 - 38) =      6.49320  eV     1   --> A_1  D_1  S_1  
     e( 39 - 39) =      6.73449  eV     1   --> B_1  D_3  S_3  
     e( 40 - 40) =      6.74973  eV     1   --> A_2  D_2  S_2  
     e( 41 - 41) =      7.08292  eV     1   --> B_2  D_4  S_4  
     e( 42 - 42) =      7.10876  eV     1   --> A_2  D_2  S_2  
     e( 43 - 43) =      7.21335  eV     1   --> B_1  D_3  S_3  
     e( 44 - 44) =      7.52400  eV     1   --> A_1  D_1  S_1  
     e( 45 - 45) =      7.60146  eV     1   --> B_2  D_4  S_4  
     e( 46 - 46) =      7.62797  eV     1   --> A_1  D_1  S_1  
     e( 47 - 47) =      7.66820  eV     1   --> B_1  D_3  S_3  
     e( 48 - 48) =      7.74284  eV     1   --> B_1  D_3  S_3  
     e( 49 - 49) =      7.95115  eV     1   --> A_1  D_1  S_1  
     e( 50 - 50) =      8.03703  eV     1   --> A_2  D_2  S_2  
     e( 51 - 51) =      8.16840  eV     1   --> A_1  D_1  S_1  
     e( 52 - 52) =      8.17838  eV     1   --> B_2  D_4  S_4  
     e( 53 - 53) =      8.20963  eV     1   --> A_1  D_1  S_1  
     e( 54 - 54) =      8.27080  eV     1   --> B_2  D_4  S_4  
     e( 55 - 55) =      8.55442  eV     1   --> A_1  D_1  S_1  
     e( 56 - 56) =      8.62745  eV     1   --> A_2  D_2  S_2  
     e( 57 - 57) =      8.65917  eV     1   --> B_1  D_3  S_3  
     e( 58 - 58) =      9.05192  eV     1   --> B_2  D_4  S_4  
     e( 59 - 59) =      9.11098  eV     1   --> B_1  D_3  S_3  
     e( 60 - 60) =      9.36989  eV     1   --> A_1  D_1  S_1  
     e( 61 - 61) =      9.48403  eV     1   --> B_1  D_3  S_3  
     e( 62 - 62) =      9.56089  eV     1   --> A_2  D_2  S_2  
     e( 63 - 63) =      9.78368  eV     1   --> B_1  D_3  S_3  
     e( 64 - 64) =     12.40492  eV     1   --> A_1  D_1  S_1  
     e( 65 - 65) =     13.30468  eV     1   --> A_1  D_1  S_1  
     e( 66 - 66) =     13.59012  eV     1   --> A_1  D_1  S_1  
     e( 67 - 67) =     13.95417  eV     1   --> B_1  D_3  S_3  
     e( 68 - 68) =     14.30157  eV     1   --> A_1  D_1  S_1  
     e( 69 - 69) =     15.15991  eV     1   --> B_2  D_4  S_4  
     e( 70 - 70) =     15.17295  eV     1   --> A_1  D_1  S_1  
     e( 71 - 71) =     15.43542  eV     1   --> B_2  D_4  S_4  
     e( 72 - 72) =     15.61633  eV     1   --> B_1  D_3  S_3  
     e( 73 - 73) =     16.18574  eV     1   --> B_1  D_3  S_3  
     e( 74 - 74) =     16.24911  eV     1   --> A_1  D_1  S_1  
     e( 75 - 75) =     16.32671  eV     1   --> B_1  D_3  S_3  
     e( 76 - 76) =     16.71610  eV     1   --> A_2  D_2  S_2  
     e( 77 - 77) =     17.26934  eV     1   --> A_1  D_1  S_1  
     e( 78 - 78) =     17.67267  eV     1   --> A_1  D_1  S_1  
     e( 79 - 79) =     17.83528  eV     1   --> B_2  D_4  S_4  
     e( 80 - 80) =     18.00272  eV     1   --> B_1  D_3  S_3  
     e( 81 - 81) =     18.01226  eV     1   --> A_2  D_2  S_2  
     e( 82 - 82) =     18.13232  eV     1   --> B_1  D_3  S_3  
     e( 83 - 83) =     18.36128  eV     1   --> A_2  D_2  S_2  
     e( 84 - 84) =     18.78416  eV     1   --> A_1  D_1  S_1  
     e( 85 - 85) =     19.09810  eV     1   --> B_2  D_4  S_4  
     e( 86 - 86) =     19.10804  eV     1   --> A_1  D_1  S_1  
     e( 87 - 87) =     19.33498  eV     1   --> B_1  D_3  S_3  
     e( 88 - 88) =     19.45617  eV     1   --> B_2  D_4  S_4  
     e( 89 - 89) =     19.48950  eV     1   --> A_2  D_2  S_2  
     e( 90 - 90) =     19.57251  eV     1   --> B_1  D_3  S_3  
     e( 91 - 91) =     19.59512  eV     1   --> A_1  D_1  S_1  
     e( 92 - 92) =     19.81535  eV     1   --> B_1  D_3  S_3  
     e( 93 - 93) =     19.89659  eV     1   --> A_2  D_2  S_2  
     e( 94 - 94) =     19.92559  eV     1   --> A_1  D_1  S_1  

 **************************************************************************

 **************************************************************************

                    xk=(   0.22500,   0.00000,   0.00000  )

     Band symmetry, C_2v (mm2)  point group:

     e(  1 -  2) =   -101.28457  eV     2   --> A_1  D_1  S_1  
     e(  1 -  2) =   -101.28457  eV     2   --> B_1  D_3  S_3  
     e(  3 -  3) =   -100.92085  eV     1   --> A_1  D_1  S_1  
     e(  4 -  5) =    -59.25878  eV     2   --> A_2  D_2  S_2  
     e(  4 -  5) =    -59.25878  eV     2   --> B_2  D_4  S_4  
     e(  6 -  7) =    -59.25331  eV     2   --> A_1  D_1  S_1  
     e(  6 -  7) =    -59.25331  eV     2   --> B_1  D_3  S_3  
     e(  8 -  8) =    -58.91172  eV     1   --> B_1  D_3  S_3  
     e(  9 -  9) =    -58.86100  eV     1   --> A_1  D_1  S_1  
     e( 10 - 10) =    -58.86019  eV     1   --> B_1  D_3  S_3  
     e( 11 - 12) =    -58.69825  eV     2   --> A_1  D_1  S_1  
     e( 11 - 12) =    -58.69825  eV     2   --> B_2  D_4  S_4  
     e( 13 - 13) =    -30.76483  eV     1   --> A_1  D_1  S_1  
     e( 14 - 14) =    -16.20305  eV     1   --> A_1  D_1  S_1  
     e( 15 - 15) =    -16.19119  eV     1   --> B_1  D_3  S_3  
     e( 16 - 16) =    -11.21406  eV     1   --> B_1  D_3  S_3  
     e( 17 - 17) =    -11.04281  eV     1   --> A_1  D_1  S_1  
     e( 18 - 18) =    -10.79435  eV     1   --> B_2  D_4  S_4  
     e( 19 - 19) =     -7.48242  eV     1   --> A_1  D_1  S_1  
     e( 20 - 20) =     -6.94234  eV     1   --> B_1  D_3  S_3  
     e( 21 - 21) =     -6.86227  eV     1   --> A_1  D_1  S_1  
     e( 22 - 22) =     -6.57232  eV     1   --> B_1  D_3  S_3  
     e( 23 - 23) =     -6.49109  eV     1   --> A_1  D_1  S_1  
     e( 24 - 24) =     -6.36089  eV     1   --> B_1  D_3  S_3  
     e( 25 - 25) =     -1.62676  eV     1   --> A_1  D_1  S_1  
     e( 26 - 26) =     -1.39285  eV     1   --> B_1  D_3  S_3  
     e( 27 - 27) =     -1.13311  eV     1   --> A_1  D_1  S_1  
     e( 28 - 28) =     -1.08441  eV     1   --> B_1  D_3  S_3  
     e( 29 - 29) =     -1.02211  eV     1   --> B_2  D_4  S_4  
     e( 30 - 30) =     -1.00763  eV     1   --> A_2  D_2  S_2  
     e( 31 - 31) =      4.79452  eV     1   --> A_1  D_1  S_1  
     e( 32 - 32) =      4.99881  eV     1   --> B_1  D_3  S_3  
     e( 33 - 33) =      5.20330  eV     1   --> A_1  D_1  S_1  
     e( 34 - 34) =      5.46724  eV     1   --> A_2  D_2  S_2  
     e( 35 - 35) =      5.65009  eV     1   --> A_1  D_1  S_1  
     e( 36 - 36) =      5.70678  eV     1   --> B_2  D_4  S_4  
     e( 37 - 37) =      6.29610  eV     1   --> B_1  D_3  S_3  
     e( 38 - 38) =      6.47909  eV     1   --> A_1  D_1  S_1  
     e( 39 - 39) =      6.69049  eV     1   --> B_1  D_3  S_3  
     e( 40 - 40) =      6.70236  eV     1   --> A_2  D_2  S_2  
     e( 41 - 41) =      7.00265  eV     1   --> B_2  D_4  S_4  
     e( 42 - 42) =      7.03233  eV     1   --> A_2  D_2  S_2  
     e( 43 - 43) =      7.20599  eV     1   --> B_1  D_3  S_3  
     e( 44 - 44) =      7.48395  eV     1   --> A_1  D_1  S_1  
     e( 45 - 45) =      7.53901  eV     1   --> B_2  D_4  S_4  
     e( 46 - 46) =      7.59663  eV     1   --> A_1  D_1  S_1  
     e( 47 - 47) =      7.59705  eV     1   --> B_1  D_3  S_3  
     e( 48 - 48) =      7.73869  eV     1   --> B_1  D_3  S_3  
     e( 49 - 49) =      7.91785  eV     1   --> A_1  D_1  S_1  
     e( 50 - 50) =      8.05079  eV     1   --> A_2  D_2  S_2  
     e( 51 - 51) =      8.16144  eV     1   --> A_1  D_1  S_1  
     e( 52 - 52) =      8.17198  eV     1   --> B_2  D_4  S_4  
     e( 53 - 53) =      8.24018  eV     1   --> A_1  D_1  S_1  
     e( 54 - 54) =      8.28167  eV     1   --> B_2  D_4  S_4  
     e( 55 - 55) =      8.57920  eV     1   --> A_1  D_1  S_1  
     e( 56 - 56) =      8.66334  eV     1   --> A_2  D_2  S_2  
     e( 57 - 57) =      8.76506  eV     1   --> B_1  D_3  S_3  
     e( 58 - 58) =      9.08877  eV     1   --> B_2  D_4  S_4  
     e( 59 - 59) =      9.11498  eV     1   --> B_1  D_3  S_3  
     e( 60 - 60) =      9.41128  eV     1   --> A_1  D_1  S_1  
     e( 61 - 61) =      9.45054  eV     1   --> B_1  D_3  S_3  
     e( 62 - 62) =      9.53141  eV     1   --> A_2  D_2  S_2  
     e( 63 - 63) =      9.84710  eV     1   --> B_1  D_3  S_3  
     e( 64 - 64) =     12.35763  eV     1   --> A_1  D_1  S_1  
     e( 65 - 65) =     13.41261  eV     1   --> A_1  D_1  S_1  
     e( 66 - 66) =     13.71840  eV     1   --> A_1  D_1  S_1  
     e( 67 - 67) =     14.12924  eV     1   --> B_1  D_3  S_3  
     e( 68 - 68) =     14.31158  eV     1   --> A_1  D_1  S_1  
     e( 69 - 69) =     15.14291  eV     1   --> B_2  D_4  S_4  
     e( 70 - 70) =     15.27392  eV     1   --> A_1  D_1  S_1  
     e( 71 - 71) =     15.51086  eV     1   --> B_2  D_4  S_4  
     e( 72 - 72) =     15.75281  eV     1   --> B_1  D_3  S_3  
     e( 73 - 73) =     16.23715  eV     1   --> B_1  D_3  S_3  
     e( 74 - 74) =     16.31116  eV     1   --> B_1  D_3  S_3  
     e( 75 - 75) =     16.34433  eV     1   --> A_1  D_1  S_1  
     e( 76 - 76) =     16.73173  eV     1   --> A_2  D_2  S_2  
     e( 77 - 77) =     17.27047  eV     1   --> A_1  D_1  S_1  
     e( 78 - 78) =     17.53795  eV     1   --> A_1  D_1  S_1  
     e( 79 - 79) =     17.92000  eV     1   --> B_2  D_4  S_4  
     e( 80 - 80) =     17.97382  eV     1   --> B_1  D_3  S_3  
     e( 81 - 81) =     18.10373  eV     1   --> A_2  D_2  S_2  
     e( 82 - 82) =     18.27084  eV     1   --> B_1  D_3  S_3  
     e( 83 - 83) =     18.35914  eV     1   --> A_2  D_2  S_2  
     e( 84 - 84) =     18.74098  eV     1   --> A_1  D_1  S_1  
     e( 85 - 85) =     19.01684  eV     1   --> B_2  D_4  S_4  
     e( 86 - 86) =     19.20021  eV     1   --> A_1  D_1  S_1  
     e( 87 - 87) =     19.37801  eV     1   --> B_1  D_3  S_3  
     e( 88 - 88) =     19.46820  eV     1   --> A_2  D_2  S_2  
     e( 89 - 89) =     19.48019  eV     1   --> B_2  D_4  S_4  
     e( 90 - 90) =     19.54621  eV     1   --> B_1  D_3  S_3  
     e( 91 - 91) =     19.58287  eV     1   --> A_1  D_1  S_1  
     e( 92 - 92) =     19.84739  eV     1   --> B_1  D_3  S_3  
     e( 93 - 93) =     19.89334  eV     1   --> A_1  D_1  S_1  
     e( 94 - 94) =     19.89618  eV     1   --> A_2  D_2  S_2  

 **************************************************************************

 **************************************************************************

                    xk=(   0.25000,   0.00000,   0.00000  )

     Band symmetry, C_2v (mm2)  point group:

     e(  1 -  2) =   -101.28458  eV     2   --> A_1  D_1  S_1  
     e(  1 -  2) =   -101.28458  eV     2   --> B_1  D_3  S_3  
     e(  3 -  3) =   -100.92085  eV     1   --> A_1  D_1  S_1  
     e(  4 -  5) =    -59.25878  eV     2   --> A_2  D_2  S_2  
     e(  4 -  5) =    -59.25878  eV     2   --> B_2  D_4  S_4  
     e(  6 -  7) =    -59.25331  eV     2   --> A_1  D_1  S_1  
     e(  6 -  7) =    -59.25331  eV     2   --> B_1  D_3  S_3  
     e(  8 -  8) =    -58.91172  eV     1   --> B_1  D_3  S_3  
     e(  9 -  9) =    -58.86099  eV     1   --> A_1  D_1  S_1  
     e( 10 - 10) =    -58.86019  eV     1   --> B_1  D_3  S_3  
     e( 11 - 12) =    -58.69824  eV     2   --> A_1  D_1  S_1  
     e( 11 - 12) =    -58.69824  eV     2   --> B_2  D_4  S_4  
     e( 13 - 13) =    -30.76384  eV     1   --> A_1  D_1  S_1  
     e( 14 - 14) =    -16.19424  eV     1   --> A_1  D_1  S_1  
     e( 15 - 15) =    -16.18252  eV     1   --> B_1  D_3  S_3  
     e( 16 - 16) =    -11.19734  eV     1   --> B_1  D_3  S_3  
     e( 17 - 17) =    -11.08322  eV     1   --> A_1  D_1  S_1  
     e( 18 - 18) =    -10.79291  eV     1   --> B_2  D_4  S_4  
     e( 19 - 19) =     -7.42682  eV     1   --> A_1  D_1  S_1  
     e( 20 - 20) =     -6.96312  eV     1   --> B_1  D_3  S_3  
     e( 21 - 21) =     -6.88971  eV     1   --> A_1  D_1  S_1  
     e( 22 - 22) =     -6.59252  eV     1   --> B_1  D_3  S_3  
     e( 23 - 23) =     -6.48515  eV     1   --> A_1  D_1  S_1  
     e( 24 - 24) =     -6.36913  eV     1   --> B_1  D_3  S_3  
     e( 25 - 25) =     -1.62216  eV     1   --> A_1  D_1  S_1  
     e( 26 - 26) =     -1.39269  eV     1   --> B_1  D_3  S_3  
     e( 27 - 27) =     -1.13697  eV     1   --> A_1  D_1  S_1  
     e( 28 - 28) =     -1.08355  eV     1   --> B_1  D_3  S_3  
     e( 29 - 29) =     -1.00527  eV     1   --> B_2  D_4  S_4  
     e( 30 - 30) =     -0.99048  eV     1   --> A_2  D_2  S_2  
     e( 31 - 31) =      4.72414  eV     1   --> A_1  D_1  S_1  
     e( 32 - 32) =      4.92834  eV     1   --> B_1  D_3  S_3  
     e( 33 - 33) =      5.17326  eV     1   --> A_1  D_1  S_1  
     e( 34 - 34) =      5.50053  eV     1   --> A_2  D_2  S_2  
     e( 35 - 35) =      5.65995  eV     1   --> A_1  D_1  S_1  
     e( 36 - 36) =      5.71945  eV     1   --> B_2  D_4  S_4  
     e( 37 - 37) =      6.26193  eV     1   --> B_1  D_3  S_3  
     e( 38 - 38) =      6.47035  eV     1   --> A_1  D_1  S_1  
     e( 39 - 39) =      6.64668  eV     1   --> B_1  D_3  S_3  
     e( 40 - 40) =      6.65266  eV     1   --> A_2  D_2  S_2  
     e( 41 - 41) =      6.92363  eV     1   --> B_2  D_4  S_4  
     e( 42 - 42) =      6.95690  eV     1   --> A_2  D_2  S_2  
     e( 43 - 43) =      7.20349  eV     1   --> B_1  D_3  S_3  
     e( 44 - 44) =      7.43341  eV     1   --> A_1  D_1  S_1  
     e( 45 - 45) =      7.47384  eV     1   --> B_2  D_4  S_4  
     e( 46 - 46) =      7.53104  eV     1   --> B_1  D_3  S_3  
     e( 47 - 47) =      7.55973  eV     1   --> A_1  D_1  S_1  
     e( 48 - 48) =      7.74161  eV     1   --> B_1  D_3  S_3  
     e( 49 - 49) =      7.87873  eV     1   --> A_1  D_1  S_1  
     e( 50 - 50) =      8.06175  eV     1   --> A_2  D_2  S_2  
     e( 51 - 51) =      8.16526  eV     1   --> B_2  D_4  S_4  
     e( 52 - 52) =      8.16933  eV     1   --> A_1  D_1  S_1  
     e( 53 - 53) =      8.28495  eV     1   --> A_1  D_1  S_1  
     e( 54 - 54) =      8.29086  eV     1   --> B_2  D_4  S_4  
     e( 55 - 55) =      8.60793  eV     1   --> A_1  D_1  S_1  
     e( 56 - 56) =      8.69880  eV     1   --> A_2  D_2  S_2  
     e( 57 - 57) =      8.86694  eV     1   --> B_1  D_3  S_3  
     e( 58 - 58) =      9.11893  eV     1   --> B_1  D_3  S_3  
     e( 59 - 59) =      9.12638  eV     1   --> B_2  D_4  S_4  
     e( 60 - 60) =      9.41737  eV     1   --> B_1  D_3  S_3  
     e( 61 - 61) =      9.44476  eV     1   --> A_1  D_1  S_1  
     e( 62 - 62) =      9.50273  eV     1   --> A_2  D_2  S_2  
     e( 63 - 63) =      9.90149  eV     1   --> B_1  D_3  S_3  
     e( 64 - 64) =     12.28899  eV     1   --> A_1  D_1  S_1  
     e( 65 - 65) =     13.52576  eV     1   --> A_1  D_1  S_1  
     e( 66 - 66) =     13.82589  eV     1   --> A_1  D_1  S_1  
     e( 67 - 67) =     14.31623  eV     1   --> B_1  D_3  S_3  
     e( 68 - 68) =     14.37114  eV     1   --> A_1  D_1  S_1  
     e( 69 - 69) =     15.12566  eV     1   --> B_2  D_4  S_4  
     e( 70 - 70) =     15.37776  eV     1   --> A_1  D_1  S_1  
     e( 71 - 71) =     15.59383  eV     1   --> B_2  D_4  S_4  
     e( 72 - 72) =     15.83621  eV     1   --> B_1  D_3  S_3  
     e( 73 - 73) =     16.31977  eV     1   --> B_1  D_3  S_3  
     e( 74 - 74) =     16.33398  eV     1   --> B_1  D_3  S_3  
     e( 75 - 75) =     16.41733  eV     1   --> A_1  D_1  S_1  
     e( 76 - 76) =     16.75121  eV     1   --> A_2  D_2  S_2  
     e( 77 - 77) =     17.27941  eV     1   --> A_1  D_1  S_1  
     e( 78 - 78) =     17.42657  eV     1   --> A_1  D_1  S_1  
     e( 79 - 79) =     17.94613  eV     1   --> B_1  D_3  S_3  
     e( 80 - 80) =     18.00504  eV     1   --> B_2  D_4  S_4  
     e( 81 - 81) =     18.18204  eV     1   --> A_2  D_2  S_2  
     e( 82 - 82) =     18.36132  eV     1   --> A_2  D_2  S_2  
     e( 83 - 83) =     18.40039  eV     1   --> B_1  D_3  S_3  
     e( 84 - 84) =     18.69734  eV     1   --> A_1  D_1  S_1  
     e( 85 - 85) =     18.92005  eV     1   --> B_2  D_4  S_4  
     e( 86 - 86) =     19.26917  eV     1   --> A_1  D_1  S_1  
     e( 87 - 87) =     19.37981  eV     1   --> B_1  D_3  S_3  
     e( 88 - 88) =     19.45427  eV     1   --> A_2  D_2  S_2  
     e( 89 - 89) =     19.50940  eV     1   --> B_2  D_4  S_4  
     e( 90 - 90) =     19.54829  eV     1   --> B_1  D_3  S_3  
     e( 91 - 91) =     19.58853  eV     1   --> A_1  D_1  S_1  
     e( 92 - 92) =     19.86419  eV     1   --> A_1  D_1  S_1  
     e( 93 - 93) =     19.87430  eV     1   --> B_1  D_3  S_3  
     e( 94 - 94) =     19.89559  eV     1   --> A_2  D_2  S_2  

 **************************************************************************

 **************************************************************************

                    xk=(   0.27500,   0.00000,   0.00000  )

     Band symmetry, C_2v (mm2)  point group:

     e(  1 -  2) =   -101.28458  eV     2   --> A_1  D_1  S_1  
     e(  1 -  2) =   -101.28458  eV     2   --> B_1  D_3  S_3  
     e(  3 -  3) =   -100.92085  eV     1   --> A_1  D_1  S_1  
     e(  4 -  5) =    -59.25878  eV     2   --> A_2  D_2  S_2  
     e(  4 -  5) =    -59.25878  eV     2   --> B_2  D_4  S_4  
     e(  6 -  7) =    -59.25332  eV     2   --> A_1  D_1  S_1  
     e(  6 -  7) =    -59.25332  eV     2   --> B_1  D_3  S_3  
     e(  8 -  8) =    -58.91172  eV     1   --> B_1  D_3  S_3  
     e(  9 -  9) =    -58.86099  eV     1   --> A_1  D_1  S_1  
     e( 10 - 10) =    -58.86019  eV     1   --> B_1  D_3  S_3  
     e( 11 - 12) =    -58.69824  eV     2   --> A_1  D_1  S_1  
     e( 11 - 12) =    -58.69824  eV     2   --> B_2  D_4  S_4  
     e( 13 - 13) =    -30.76286  eV     1   --> A_1  D_1  S_1  
     e( 14 - 14) =    -16.18538  eV     1   --> A_1  D_1  S_1  
     e( 15 - 15) =    -16.17381  eV     1   --> B_1  D_3  S_3  
     e( 16 - 16) =    -11.18040  eV     1   --> B_1  D_3  S_3  
     e( 17 - 17) =    -11.12268  eV     1   --> A_1  D_1  S_1  
     e( 18 - 18) =    -10.79148  eV     1   --> B_2  D_4  S_4  
     e( 19 - 19) =     -7.37089  eV     1   --> A_1  D_1  S_1  
     e( 20 - 20) =     -6.98707  eV     1   --> B_1  D_3  S_3  
     e( 21 - 21) =     -6.91690  eV     1   --> A_1  D_1  S_1  
     e( 22 - 22) =     -6.61166  eV     1   --> B_1  D_3  S_3  
     e( 23 - 23) =     -6.48075  eV     1   --> A_1  D_1  S_1  
     e( 24 - 24) =     -6.37524  eV     1   --> B_1  D_3  S_3  
     e( 25 - 25) =     -1.61734  eV     1   --> A_1  D_1  S_1  
     e( 26 - 26) =     -1.39169  eV     1   --> B_1  D_3  S_3  
     e( 27 - 27) =     -1.14071  eV     1   --> A_1  D_1  S_1  
     e( 28 - 28) =     -1.08318  eV     1   --> B_1  D_3  S_3  
     e( 29 - 29) =     -0.98828  eV     1   --> B_2  D_4  S_4  
     e( 30 - 30) =     -0.97317  eV     1   --> A_2  D_2  S_2  
     e( 31 - 31) =      4.65045  eV     1   --> A_1  D_1  S_1  
     e( 32 - 32) =      4.85604  eV     1   --> B_1  D_3  S_3  
     e( 33 - 33) =      5.14980  eV     1   --> A_1  D_1  S_1  
     e( 34 - 34) =      5.53648  eV     1   --> A_2  D_2  S_2  
     e( 35 - 35) =      5.66446  eV     1   --> A_1  D_1  S_1  
     e( 36 - 36) =      5.73362  eV     1   --> B_2  D_4  S_4  
     e( 37 - 37) =      6.22718  eV     1   --> B_1  D_3  S_3  
     e( 38 - 38) =      6.46892  eV     1   --> A_1  D_1  S_1  
     e( 39 - 39) =      6.60171  eV     1   --> A_2  D_2  S_2  
     e( 40 - 40) =      6.60380  eV     1   --> B_1  D_3  S_3  
     e( 41 - 41) =      6.84684  eV     1   --> B_2  D_4  S_4  
     e( 42 - 42) =      6.88311  eV     1   --> A_2  D_2  S_2  
     e( 43 - 43) =      7.20179  eV     1   --> B_1  D_3  S_3  
     e( 44 - 44) =      7.37963  eV     1   --> A_1  D_1  S_1  
     e( 45 - 45) =      7.40793  eV     1   --> B_2  D_4  S_4  
     e( 46 - 46) =      7.47838  eV     1   --> B_1  D_3  S_3  
     e( 47 - 47) =      7.50963  eV     1   --> A_1  D_1  S_1  
     e( 48 - 48) =      7.74584  eV     1   --> B_1  D_3  S_3  
     e( 49 - 49) =      7.84616  eV     1   --> A_1  D_1  S_1  
     e( 50 - 50) =      8.07050  eV     1   --> A_2  D_2  S_2  
     e( 51 - 51) =      8.15844  eV     1   --> B_2  D_4  S_4  
     e( 52 - 52) =      8.18501  eV     1   --> A_1  D_1  S_1  
     e( 53 - 53) =      8.29861  eV     1   --> B_2  D_4  S_4  
     e( 54 - 54) =      8.33912  eV     1   --> A_1  D_1  S_1  
     e( 55 - 55) =      8.64046  eV     1   --> A_1  D_1  S_1  
     e( 56 - 56) =      8.73294  eV     1   --> A_2  D_2  S_2  
     e( 57 - 57) =      8.96131  eV     1   --> B_1  D_3  S_3  
     e( 58 - 58) =      9.12405  eV     1   --> B_1  D_3  S_3  
     e( 59 - 59) =      9.16358  eV     1   --> B_2  D_4  S_4  
     e( 60 - 60) =      9.38731  eV     1   --> B_1  D_3  S_3  
     e( 61 - 61) =      9.47011  eV     1   --> A_1  D_1  S_1  
     e( 62 - 62) =      9.47550  eV     1   --> A_2  D_2  S_2  
     e( 63 - 63) =      9.94597  eV     1   --> B_1  D_3  S_3  
     e( 64 - 64) =     12.20533  eV     1   --> A_1  D_1  S_1  
     e( 65 - 65) =     13.62731  eV     1   --> A_1  D_1  S_1  
     e( 66 - 66) =     13.91342  eV     1   --> A_1  D_1  S_1  
     e( 67 - 67) =     14.48685  eV     1   --> A_1  D_1  S_1  
     e( 68 - 68) =     14.51139  eV     1   --> B_1  D_3  S_3  
     e( 69 - 69) =     15.10871  eV     1   --> B_2  D_4  S_4  
     e( 70 - 70) =     15.47837  eV     1   --> A_1  D_1  S_1  
     e( 71 - 71) =     15.68325  eV     1   --> B_2  D_4  S_4  
     e( 72 - 72) =     15.84776  eV     1   --> B_1  D_3  S_3  
     e( 73 - 73) =     16.38128  eV     1   --> B_1  D_3  S_3  
     e( 74 - 74) =     16.45759  eV     1   --> A_1  D_1  S_1  
     e( 75 - 75) =     16.46537  eV     1   --> B_1  D_3  S_3  
     e( 76 - 76) =     16.77388  eV     1   --> A_2  D_2  S_2  
     e( 77 - 77) =     17.25509  eV     1   --> A_1  D_1  S_1  
     e( 78 - 78) =     17.39393  eV     1   --> A_1  D_1  S_1  
     e( 79 - 79) =     17.91694  eV     1   --> B_1  D_3  S_3  
     e( 80 - 80) =     18.08857  eV     1   --> B_2  D_4  S_4  
     e( 81 - 81) =     18.23890  eV     1   --> A_2  D_2  S_2  
     e( 82 - 82) =     18.37201  eV     1   --> A_2  D_2  S_2  
     e( 83 - 83) =     18.51461  eV     1   --> B_1  D_3  S_3  
     e( 84 - 84) =     18.65440  eV     1   --> A_1  D_1  S_1  
     e( 85 - 85) =     18.81248  eV     1   --> B_2  D_4  S_4  
     e( 86 - 86) =     19.30294  eV     1   --> A_1  D_1  S_1  
     e( 87 - 87) =     19.32529  eV     1   --> B_1  D_3  S_3  
     e( 88 - 88) =     19.45050  eV     1   --> A_2  D_2  S_2  
     e( 89 - 89) =     19.53808  eV     1   --> B_2  D_4  S_4  
     e( 90 - 90) =     19.59749  eV     1   --> B_1  D_3  S_3  
     e( 91 - 91) =     19.61549  eV     1   --> A_1  D_1  S_1  
     e( 92 - 92) =     19.84340  eV     1   --> A_1  D_1  S_1  
     e( 93 - 93) =     19.85549  eV     1   --> B_1  D_3  S_3  
     e( 94 - 94) =     19.89474  eV     1   --> A_2  D_2  S_2  

 **************************************************************************

 **************************************************************************

                    xk=(   0.30000,   0.00000,   0.00000  )

     Band symmetry, C_2v (mm2)  point group:

     e(  1 -  2) =   -101.28458  eV     2   --> A_1  D_1  S_1  
     e(  1 -  2) =   -101.28458  eV     2   --> B_1  D_3  S_3  
     e(  3 -  3) =   -100.92085  eV     1   --> A_1  D_1  S_1  
     e(  4 -  5) =    -59.25877  eV     2   --> A_2  D_2  S_2  
     e(  4 -  5) =    -59.25877  eV     2   --> B_2  D_4  S_4  
[...]
     e(  4 -  5) =    -59.25884  eV     2   --> A''            
     e(  6 -  7) =    -59.25333  eV     2   --> A'             
     e(  6 -  7) =    -59.25333  eV     2   --> A''            
     e(  8 -  8) =    -58.91171  eV     1   --> A''            
     e(  9 -  9) =    -58.86097  eV     1   --> A'             
     e( 10 - 10) =    -58.86017  eV     1   --> A''            
     e( 11 - 11) =    -58.69839  eV     1   --> A'             
     e( 12 - 12) =    -58.69827  eV     1   --> A'             
     e( 13 - 13) =    -30.74573  eV     1   --> A'             
     e( 14 - 14) =    -16.05433  eV     1   --> A'             
     e( 15 - 15) =    -16.04385  eV     1   --> A''            
     e( 16 - 16) =    -11.27568  eV     1   --> A'             
     e( 17 - 17) =    -11.26591  eV     1   --> A'             
     e( 18 - 18) =    -10.90464  eV     1   --> A''            
     e( 19 - 19) =     -6.80759  eV     1   --> A'             
     e( 20 - 20) =     -6.80721  eV     1   --> A''            
     e( 21 - 21) =     -6.78211  eV     1   --> A''            
     e( 22 - 22) =     -6.54015  eV     1   --> A''            
     e( 23 - 23) =     -6.36350  eV     1   --> A'             
     e( 24 - 24) =     -6.32729  eV     1   --> A'             
     e( 25 - 25) =     -1.88444  eV     1   --> A'             
     e( 26 - 26) =     -1.85838  eV     1   --> A''            
     e( 27 - 27) =     -1.84615  eV     1   --> A'             
     e( 28 - 28) =     -1.81526  eV     1   --> A''            
     e( 29 - 29) =     -1.56697  eV     1   --> A'             
     e( 30 - 30) =     -1.36230  eV     1   --> A''            
     e( 31 - 31) =      3.11430  eV     1   --> A'             
     e( 32 - 32) =      3.72665  eV     1   --> A''            
     e( 33 - 33) =      4.80020  eV     1   --> A'             
     e( 34 - 34) =      4.97256  eV     1   --> A'             
     e( 35 - 35) =      5.01999  eV     1   --> A''            
     e( 36 - 36) =      5.15362  eV     1   --> A'             
     e( 37 - 37) =      5.54429  eV     1   --> A''            
     e( 38 - 38) =      6.29988  eV     1   --> A'             
     e( 39 - 39) =      6.32085  eV     1   --> A'             
     e( 40 - 40) =      6.50708  eV     1   --> A''            
     e( 41 - 41) =      6.67282  eV     1   --> A''            
     e( 42 - 42) =      6.70417  eV     1   --> A''            
     e( 43 - 43) =      6.95911  eV     1   --> A''            
     e( 44 - 44) =      6.98555  eV     1   --> A''            
     e( 45 - 45) =      7.79580  eV     1   --> A'             
     e( 46 - 46) =      8.01174  eV     1   --> A'             
     e( 47 - 47) =      8.02863  eV     1   --> A'             
     e( 48 - 48) =      8.08004  eV     1   --> A'             
     e( 49 - 49) =      8.31715  eV     1   --> A'             
     e( 50 - 50) =      8.71091  eV     1   --> A'             
     e( 51 - 51) =      8.93094  eV     1   --> A'             
     e( 52 - 52) =      8.97848  eV     1   --> A'             
     e( 53 - 53) =      9.07019  eV     1   --> A''            
     e( 54 - 54) =      9.17373  eV     1   --> A'             
     e( 55 - 55) =      9.19341  eV     1   --> A'             
     e( 56 - 56) =      9.20717  eV     1   --> A''            
     e( 57 - 57) =      9.25568  eV     1   --> A''            
     e( 58 - 58) =      9.31461  eV     1   --> A''            
     e( 59 - 59) =      9.37902  eV     1   --> A''            
     e( 60 - 60) =      9.74218  eV     1   --> A''            
     e( 61 - 61) =      9.78835  eV     1   --> A''            
     e( 62 - 62) =     12.10104  eV     1   --> A'             
     e( 63 - 63) =     12.18030  eV     1   --> A''            
     e( 64 - 64) =     12.21206  eV     1   --> A'             
     e( 65 - 65) =     12.31518  eV     1   --> A'             
     e( 66 - 66) =     13.12668  eV     1   --> A'             
     e( 67 - 67) =     14.09935  eV     1   --> A'             
     e( 68 - 68) =     15.21069  eV     1   --> A''            
     e( 69 - 69) =     15.25561  eV     1   --> A''            
     e( 70 - 70) =     15.35160  eV     1   --> A'             
     e( 71 - 71) =     15.68908  eV     1   --> A'             
     e( 72 - 72) =     15.79114  eV     1   --> A''            
     e( 73 - 73) =     16.90192  eV     1   --> A''            
     e( 74 - 74) =     17.06835  eV     1   --> A''            
     e( 75 - 75) =     17.35917  eV     1   --> A'             
     e( 76 - 76) =     17.53586  eV     1   --> A'             
     e( 77 - 77) =     17.59998  eV     1   --> A''            
     e( 78 - 78) =     17.85112  eV     1   --> A'             
     e( 79 - 79) =     17.95074  eV     1   --> A'             
     e( 80 - 80) =     18.64616  eV     1   --> A''            
     e( 81 - 81) =     18.65133  eV     1   --> A'             
     e( 82 - 82) =     18.70075  eV     1   --> A''            
     e( 83 - 83) =     18.85559  eV     1   --> A'             
     e( 84 - 84) =     18.98581  eV     1   --> A''            
     e( 85 - 85) =     19.31955  eV     1   --> A'             
     e( 86 - 86) =     19.57716  eV     1   --> A'             
     e( 87 - 87) =     19.75566  eV     1   --> A''            
     e( 88 - 88) =     19.75664  eV     1   --> A'             
     e( 89 - 89) =     19.79506  eV     1   --> A'             
     e( 90 - 90) =     19.81566  eV     1   --> A''            
     e( 91 - 91) =     19.89553  eV     1   --> A''            
     e( 92 - 92) =     19.99349  eV     1   --> A''            
     e( 93 - 93) =     20.06502  eV     1   --> A''            
     e( 94 - 94) =     20.10126  eV     1   --> A'             

 **************************************************************************

 **************************************************************************

                    xk=(   0.47500,   0.47500,   0.00000  )

     Band symmetry, C_s (m)     point group:

     e(  1 -  2) =   -101.28460  eV     2   --> A'             
     e(  1 -  2) =   -101.28460  eV     2   --> A''            
     e(  3 -  3) =   -100.92085  eV     1   --> A'             
     e(  4 -  5) =    -59.25884  eV     2   --> A'             
     e(  4 -  5) =    -59.25884  eV     2   --> A''            
     e(  6 -  7) =    -59.25333  eV     2   --> A'             
     e(  6 -  7) =    -59.25333  eV     2   --> A''            
     e(  8 -  8) =    -58.91171  eV     1   --> A''            
     e(  9 -  9) =    -58.86097  eV     1   --> A'             
     e( 10 - 10) =    -58.86017  eV     1   --> A''            
     e( 11 - 11) =    -58.69840  eV     1   --> A'             
     e( 12 - 12) =    -58.69827  eV     1   --> A'             
     e( 13 - 13) =    -30.74527  eV     1   --> A'             
     e( 14 - 14) =    -16.05107  eV     1   --> A'             
     e( 15 - 15) =    -16.04060  eV     1   --> A''            
     e( 16 - 16) =    -11.28281  eV     1   --> A'             
     e( 17 - 17) =    -11.27309  eV     1   --> A'             
     e( 18 - 18) =    -10.89717  eV     1   --> A''            
     e( 19 - 19) =     -6.80051  eV     1   --> A''            
     e( 20 - 20) =     -6.79400  eV     1   --> A'             
     e( 21 - 21) =     -6.78893  eV     1   --> A''            
     e( 22 - 22) =     -6.53510  eV     1   --> A''            
     e( 23 - 23) =     -6.34356  eV     1   --> A'             
     e( 24 - 24) =     -6.31995  eV     1   --> A'             
     e( 25 - 25) =     -1.89755  eV     1   --> A'             
     e( 26 - 26) =     -1.88707  eV     1   --> A'             
     e( 27 - 27) =     -1.87171  eV     1   --> A''            
     e( 28 - 28) =     -1.86016  eV     1   --> A''            
     e( 29 - 29) =     -1.57034  eV     1   --> A'             
     e( 30 - 30) =     -1.36223  eV     1   --> A''            
     e( 31 - 31) =      3.06875  eV     1   --> A'             
     e( 32 - 32) =      3.68483  eV     1   --> A''            
     e( 33 - 33) =      4.76874  eV     1   --> A'             
     e( 34 - 34) =      4.96239  eV     1   --> A'             
     e( 35 - 35) =      5.00958  eV     1   --> A''            
     e( 36 - 36) =      5.15669  eV     1   --> A'             
     e( 37 - 37) =      5.53831  eV     1   --> A''            
     e( 38 - 38) =      6.30472  eV     1   --> A'             
     e( 39 - 39) =      6.31595  eV     1   --> A'             
     e( 40 - 40) =      6.52907  eV     1   --> A''            
     e( 41 - 41) =      6.65145  eV     1   --> A''            
     e( 42 - 42) =      6.67836  eV     1   --> A''            
     e( 43 - 43) =      6.98145  eV     1   --> A''            
     e( 44 - 44) =      6.98832  eV     1   --> A''            
     e( 45 - 45) =      7.79885  eV     1   --> A'             
     e( 46 - 46) =      8.01624  eV     1   --> A'             
     e( 47 - 47) =      8.07893  eV     1   --> A'             
     e( 48 - 48) =      8.09435  eV     1   --> A'             
     e( 49 - 49) =      8.31721  eV     1   --> A'             
     e( 50 - 50) =      8.74263  eV     1   --> A'             
     e( 51 - 51) =      8.93971  eV     1   --> A'             
     e( 52 - 52) =      9.03217  eV     1   --> A'             
     e( 53 - 53) =      9.12016  eV     1   --> A''            
     e( 54 - 54) =      9.17203  eV     1   --> A'             
     e( 55 - 55) =      9.19075  eV     1   --> A'             
     e( 56 - 56) =      9.26901  eV     1   --> A''            
     e( 57 - 57) =      9.27503  eV     1   --> A''            
     e( 58 - 58) =      9.32129  eV     1   --> A''            
     e( 59 - 59) =      9.34484  eV     1   --> A''            
     e( 60 - 60) =      9.78082  eV     1   --> A''            
     e( 61 - 61) =      9.79298  eV     1   --> A''            
     e( 62 - 62) =     12.16993  eV     1   --> A'             
     e( 63 - 63) =     12.24377  eV     1   --> A''            
     e( 64 - 64) =     12.24754  eV     1   --> A'             
     e( 65 - 65) =     12.27982  eV     1   --> A'             
     e( 66 - 66) =     13.04800  eV     1   --> A'             
     e( 67 - 67) =     14.03743  eV     1   --> A'             
     e( 68 - 68) =     15.18883  eV     1   --> A''            
     e( 69 - 69) =     15.20563  eV     1   --> A''            
     e( 70 - 70) =     15.31479  eV     1   --> A'             
     e( 71 - 71) =     15.71969  eV     1   --> A''            
     e( 72 - 72) =     15.74266  eV     1   --> A'             
     e( 73 - 73) =     16.99682  eV     1   --> A''            
     e( 74 - 74) =     17.04657  eV     1   --> A''            
     e( 75 - 75) =     17.48007  eV     1   --> A'             
     e( 76 - 76) =     17.52851  eV     1   --> A''            
     e( 77 - 77) =     17.58174  eV     1   --> A'             
     e( 78 - 78) =     17.74017  eV     1   --> A'             
     e( 79 - 79) =     17.94425  eV     1   --> A'             
     e( 80 - 80) =     18.67443  eV     1   --> A''            
     e( 81 - 81) =     18.84988  eV     1   --> A'             
     e( 82 - 82) =     18.89798  eV     1   --> A''            
     e( 83 - 83) =     18.91947  eV     1   --> A'             
     e( 84 - 84) =     18.99783  eV     1   --> A''            
     e( 85 - 85) =     19.29983  eV     1   --> A'             
     e( 86 - 86) =     19.68685  eV     1   --> A'             
     e( 87 - 87) =     19.72250  eV     1   --> A''            
     e( 88 - 88) =     19.75433  eV     1   --> A'             
     e( 89 - 89) =     19.82523  eV     1   --> A''            
     e( 90 - 90) =     19.85754  eV     1   --> A'             
     e( 91 - 91) =     19.91928  eV     1   --> A''            
     e( 92 - 92) =     19.94785  eV     1   --> A''            
     e( 93 - 93) =     20.06454  eV     1   --> A''            
     e( 94 - 94) =     20.10024  eV     1   --> A'             

 **************************************************************************

 **************************************************************************

                    xk=(   0.50000,   0.50000,   0.00000  )

     point group D_2h (mmm) 
     there are  8 classes
     the character table:

       E     C2    C2'   C2''  i     s_v   s_v'  s_v''
A_g    1.00  1.00  1.00  1.00  1.00  1.00  1.00  1.00
B_1g   1.00  1.00 -1.00 -1.00  1.00  1.00 -1.00 -1.00
B_2g   1.00 -1.00  1.00 -1.00  1.00 -1.00  1.00 -1.00
B_3g   1.00 -1.00 -1.00  1.00  1.00 -1.00 -1.00  1.00
A_u    1.00  1.00  1.00  1.00 -1.00 -1.00 -1.00 -1.00
B_1u   1.00  1.00 -1.00 -1.00 -1.00 -1.00  1.00  1.00
B_2u   1.00 -1.00  1.00 -1.00 -1.00  1.00 -1.00  1.00
B_3u   1.00 -1.00 -1.00  1.00 -1.00  1.00  1.00 -1.00

     the symmetry operations in each class and the name of the first element:

     E        1
                                                                 
     C2       2
                                                                 
     C2'      4
                                                                 
     C2''     3
                                                                 
     i        5
                                                                 
     s_v      6
                                                                 
     s_v'     8
                                                                 
     s_v''    7
                                                                 

     Band symmetry, D_2h (mmm)  point group:

     e(  1 -  2) =   -101.28460  eV     2   --> A_g            
     e(  1 -  2) =   -101.28460  eV     2   --> B_1u           
     e(  3 -  3) =   -100.92085  eV     1   --> A_g            
     e(  4 -  5) =    -59.25884  eV     2   --> B_2g           
     e(  4 -  5) =    -59.25884  eV     2   --> B_3u           
     e(  6 -  7) =    -59.25333  eV     2   --> B_3g           
     e(  6 -  7) =    -59.25333  eV     2   --> B_2u           
     e(  8 -  8) =    -58.91171  eV     1   --> B_1u           
     e(  9 -  9) =    -58.86097  eV     1   --> A_g            
     e( 10 - 10) =    -58.86017  eV     1   --> B_1u           
     e( 11 - 11) =    -58.69840  eV     1   --> B_3u           
     e( 12 - 12) =    -58.69827  eV     1   --> B_2u           
     e( 13 - 13) =    -30.74512  eV     1   --> B_1g           
     e( 14 - 14) =    -16.04998  eV     1   --> B_1g           
     e( 15 - 15) =    -16.03951  eV     1   --> A_u            
     e( 16 - 16) =    -11.28523  eV     1   --> B_2u           
     e( 17 - 17) =    -11.27546  eV     1   --> B_3u           
     e( 18 - 18) =    -10.89466  eV     1   --> A_u            
     e( 19 - 19) =     -6.79966  eV     1   --> B_2g           
     e( 20 - 20) =     -6.78972  eV     1   --> B_3g           
     e( 21 - 21) =     -6.78928  eV     1   --> A_g            
     e( 22 - 22) =     -6.53334  eV     1   --> B_1u           
     e( 23 - 23) =     -6.33850  eV     1   --> B_3u           
     e( 24 - 24) =     -6.31586  eV     1   --> B_2u           
     e( 25 - 25) =     -1.90342  eV     1   --> B_2u           
     e( 26 - 26) =     -1.89960  eV     1   --> B_3u           
     e( 27 - 27) =     -1.87762  eV     1   --> B_3g           
     e( 28 - 28) =     -1.87404  eV     1   --> B_2g           
     e( 29 - 29) =     -1.57146  eV     1   --> B_1g           
     e( 30 - 30) =     -1.36220  eV     1   --> A_u            
     e( 31 - 31) =      3.05340  eV     1   --> A_g            
     e( 32 - 32) =      3.67074  eV     1   --> B_1u           
     e( 33 - 33) =      4.75829  eV     1   --> B_1g           
     e( 34 - 34) =      4.95899  eV     1   --> A_g            
     e( 35 - 35) =      5.00609  eV     1   --> B_1u           
     e( 36 - 36) =      5.15784  eV     1   --> A_g            
     e( 37 - 37) =      5.53642  eV     1   --> A_u            
     e( 38 - 38) =      6.30501  eV     1   --> B_3u           
     e( 39 - 39) =      6.31547  eV     1   --> B_2u           
     e( 40 - 40) =      6.53929  eV     1   --> B_1u           
     e( 41 - 41) =      6.64212  eV     1   --> B_2g           
     e( 42 - 42) =      6.66879  eV     1   --> B_3g           
     e( 43 - 43) =      6.98899  eV     1   --> B_2g           
     e( 44 - 44) =      6.98951  eV     1   --> B_3g           
     e( 45 - 45) =      7.79958  eV     1   --> A_g            
     e( 46 - 46) =      8.01532  eV     1   --> B_1g           
     e( 47 - 47) =      8.09882  eV     1   --> B_2u           
     e( 48 - 48) =      8.09982  eV     1   --> B_3u           
     e( 49 - 49) =      8.31700  eV     1   --> A_g            
     e( 50 - 50) =      8.75383  eV     1   --> B_1g           
     e( 51 - 51) =      8.94265  eV     1   --> B_1g           
     e( 52 - 52) =      9.05351  eV     1   --> A_g            
     e( 53 - 53) =      9.13930  eV     1   --> B_1u           
     e( 54 - 54) =      9.16904  eV     1   --> B_2u           
     e( 55 - 55) =      9.18817  eV     1   --> B_3u           
     e( 56 - 56) =      9.29173  eV     1   --> A_u            
     e( 57 - 57) =      9.29309  eV     1   --> A_u            
     e( 58 - 58) =      9.31996  eV     1   --> B_3g           
     e( 59 - 59) =      9.32122  eV     1   --> B_2g           
     e( 60 - 60) =      9.79428  eV     1   --> B_3g           
     e( 61 - 61) =      9.79467  eV     1   --> B_2g           
     e( 62 - 62) =     12.19687  eV     1   --> A_g            
     e( 63 - 63) =     12.26109  eV     1   --> B_2u           
     e( 64 - 64) =     12.26555  eV     1   --> B_1u           
     e( 65 - 65) =     12.26694  eV     1   --> B_3u           
     e( 66 - 66) =     13.01796  eV     1   --> A_g            
     e( 67 - 67) =     14.01575  eV     1   --> B_1g           
     e( 68 - 68) =     15.17988  eV     1   --> B_3g           
     e( 69 - 69) =     15.19115  eV     1   --> B_2g           
     e( 70 - 70) =     15.30158  eV     1   --> A_g            
     e( 71 - 71) =     15.69381  eV     1   --> B_1u           
     e( 72 - 72) =     15.76143  eV     1   --> B_1g           
     e( 73 - 73) =     17.03282  eV     1   --> B_2g           
     e( 74 - 74) =     17.04349  eV     1   --> B_3g           
     e( 75 - 75) =     17.49506  eV     1   --> A_u            
     e( 76 - 76) =     17.58868  eV     1   --> B_2u           
     e( 77 - 77) =     17.61256  eV     1   --> B_3u           
     e( 78 - 78) =     17.61810  eV     1   --> B_1g           
     e( 79 - 79) =     17.94088  eV     1   --> A_g            
     e( 80 - 80) =     18.66524  eV     1   --> B_1u           
     e( 81 - 81) =     18.94169  eV     1   --> B_2u           
     e( 82 - 82) =     18.94296  eV     1   --> B_3u           
     e( 83 - 83) =     19.00185  eV     1   --> B_3g           
     e( 84 - 84) =     19.00407  eV     1   --> B_2g           
     e( 85 - 85) =     19.28034  eV     1   --> A_g            
     e( 86 - 86) =     19.62798  eV     1   --> B_1g           
     e( 87 - 87) =     19.69393  eV     1   --> A_u            
     e( 88 - 88) =     19.76213  eV     1   --> B_1g           
     e( 89 - 89) =     19.82836  eV     1   --> A_u            
     e( 90 - 90) =     19.92261  eV     1   --> B_3g           
     e( 91 - 91) =     19.93519  eV     1   --> B_2g           
     e( 92 - 92) =     19.99576  eV     1   --> A_g            
     e( 93 - 93) =     20.06550  eV     1   --> A_u            
     e( 94 - 94) =     20.10103  eV     1   --> B_1g           

 **************************************************************************
 
     BANDS        :   2m52.03s CPU   3m36.67s WALL

 
   This run was terminated on:   3:11:52  31Dec2023            

=------------------------------------------------------------------------------=
   JOB DONE.
=------------------------------------------------------------------------------=
