
     Program PWSCF v.7.2 starts on 31Dec2023 at  3: 2:34 

     This program is part of the open-source Quantum ESPRESSO suite
     for quantum simulation of materials; please cite
         "P. Giannozzi et al., J. Phys.:Condens. Matter 21 395502 (2009);
         "P. Giannozzi et al., J. Phys.:Condens. Matter 29 465901 (2017);
         "P. Giannozzi et al., J. Chem. Phys. 152 154105 (2020);
          URL http://www.quantum-espresso.org", 
     in publications or presentations arising from this work. More details at
     http://www.quantum-espresso.org/quote

     Parallel version (MPI), running on     4 processors

     MPI processes distributed on     1 nodes
     6073 MiB available memory on the printing compute node when the environment starts
 
     Waiting for input...
     Reading input from standard input
Warning: card &IONS ignored
Warning: card / ignored
Warning: card &CELL ignored
Warning: card / ignored

     Current dimensions of program PWSCF are:
     Max number of different atomic species (ntypx) = 10
     Max number of k-points (npk) =  40000
     Max angular momentum in pseudopotentials (lmaxx) =  4

     Atomic positions and unit cell read from directory:
     ./YBCO6/YBCO6.save/
 
 
     R & G space division:  proc/nbgrp/npool/nimage =       4
     Subspace diagonalization in iterative solution of the eigenvalue problem:
     a serial algorithm will be used

 
     Parallelization info
     --------------------
     sticks:   dense  smooth     PW     G-vecs:    dense   smooth      PW
     Min         577     258     73                62701    18582    2923
     Max         579     259     74                62707    18585    2934
     Sum        2313    1033    293               250811    74333   11703
 
     Using Slab Decomposition
 


     bravais-lattice index     =            6
     lattice parameter (alat)  =       7.3208  a.u.
     unit-cell volume          =    1184.0154 (a.u.)^3
     number of atoms/cell      =           12
     number of atomic types    =            4
     number of electrons       =       124.00
     number of Kohn-Sham states=           94
     kinetic-energy cutoff     =      60.0000  Ry
     charge density cutoff     =     540.0000  Ry
     Exchange-correlation= SLA  PZ   NOGX NOGC
                           (   1   1   0   0   0   0   0)

     celldm(1)=   7.320840  celldm(2)=   0.000000  celldm(3)=   3.017690
     celldm(4)=   0.000000  celldm(5)=   0.000000  celldm(6)=   0.000000

     crystal axes: (cart. coord. in units of alat)
               a(1) = (   1.000000   0.000000   0.000000 )  
               a(2) = (   0.000000   1.000000   0.000000 )  
               a(3) = (   0.000000   0.000000   3.017690 )  

     reciprocal axes: (cart. coord. in units 2 pi/alat)
               b(1) = (  1.000000  0.000000  0.000000 )  
               b(2) = (  0.000000  1.000000  0.000000 )  
               b(3) = (  0.000000  0.000000  0.331379 )  


     PseudoPot. # 1 for Y  read from file:
     ~/q-e/pseudo/gbrv_lda/y_lda_v1.4.uspp.F.UPF
     MD5 check sum: Not computed, couldn't open file
     Pseudo is Ultrasoft + core correction, Zval = 11.0
     Generated by new atomic code, or converted to UPF format
     Using radial grid of  885 points,  6 beta functions with: 
                l(1) =   0
                l(2) =   0
                l(3) =   1
                l(4) =   1
                l(5) =   2
                l(6) =   2
     Q(r) pseudized with  8 coefficients,  rinner =    1.200   1.200   1.200
                                                       1.200   1.200

     PseudoPot. # 2 for Ba read from file:
     ~/q-e/pseudo/gbrv_lda/ba_lda_v1.uspp.F.UPF
     MD5 check sum: Not computed, couldn't open file
     Pseudo is Ultrasoft + core correction, Zval = 10.0
     Generated by new atomic code, or converted to UPF format
     Using radial grid of  907 points,  7 beta functions with: 
                l(1) =   0
                l(2) =   0
                l(3) =   1
                l(4) =   1
                l(5) =   2
                l(6) =   2
                l(7) =   3
     Q(r) pseudized with  6 coefficients,  rinner =    1.700   1.700   1.700
                                                       1.700   1.700   1.700
                                                       1.700

     PseudoPot. # 3 for Cu read from file:
     ~/q-e/pseudo/gbrv_lda/cu_lda_v1.2.uspp.F.UPF
     MD5 check sum: Not computed, couldn't open file
     Pseudo is Ultrasoft + core correction, Zval = 19.0
     Generated by new atomic code, or converted to UPF format
     Using radial grid of  867 points,  6 beta functions with: 
                l(1) =   0
                l(2) =   0
                l(3) =   1
                l(4) =   1
                l(5) =   2
                l(6) =   2
     Q(r) pseudized with  8 coefficients,  rinner =    1.150   1.150   1.150
                                                       1.150   1.150

     PseudoPot. # 4 for O  read from file:
     ~/q-e/pseudo/gbrv_lda/o_lda_v1.2.uspp.F.UPF
     MD5 check sum: Not computed, couldn't open file
     Pseudo is Ultrasoft + core correction, Zval =  6.0
     Generated by new atomic code, or converted to UPF format
     Using radial grid of  737 points,  5 beta functions with: 
                l(1) =   0
                l(2) =   0
                l(3) =   1
                l(4) =   1
                l(5) =   2
     Q(r) pseudized with  8 coefficients,  rinner =    0.900   0.900   0.900
                                                       0.900   0.900

     atomic species   valence    mass     pseudopotential
     Y                11.00    88.90584     Y ( 1.00)
     Ba               10.00   137.32700     Ba( 1.00)
     Cu               19.00    63.54600     Cu( 1.00)
     O                 6.00    15.99900     O ( 1.00)

      8 Sym. Ops., with inversion, found


                                    s                        frac. trans.

      isym =  1     identity                                     

 cryst.   s( 1) = (     1          0          0      )
                  (     0          1          0      )
                  (     0          0          1      )

 cart.    s( 1) = (  1.0000000  0.0000000  0.0000000 )
                  (  0.0000000  1.0000000  0.0000000 )
                  (  0.0000000  0.0000000  1.0000000 )


      isym =  2     180 deg rotation - cart. axis [0,0,1]        

 cryst.   s( 2) = (    -1          0          0      )
                  (     0         -1          0      )
                  (     0          0          1      )

 cart.    s( 2) = ( -1.0000000  0.0000000  0.0000000 )
                  (  0.0000000 -1.0000000  0.0000000 )
                  (  0.0000000  0.0000000  1.0000000 )


      isym =  3     180 deg rotation - cart. axis [0,1,0]        

 cryst.   s( 3) = (    -1          0          0      )
                  (     0          1          0      )
                  (     0          0         -1      )

 cart.    s( 3) = ( -1.0000000  0.0000000  0.0000000 )
                  (  0.0000000  1.0000000  0.0000000 )
                  (  0.0000000  0.0000000 -1.0000000 )


      isym =  4     180 deg rotation - cart. axis [1,0,0]        

 cryst.   s( 4) = (     1          0          0      )
                  (     0         -1          0      )
                  (     0          0         -1      )

 cart.    s( 4) = (  1.0000000  0.0000000  0.0000000 )
                  (  0.0000000 -1.0000000  0.0000000 )
                  (  0.0000000  0.0000000 -1.0000000 )


      isym =  5     inversion                                    

 cryst.   s( 5) = (    -1          0          0      )
                  (     0         -1          0      )
                  (     0          0         -1      )

 cart.    s( 5) = ( -1.0000000  0.0000000  0.0000000 )
                  (  0.0000000 -1.0000000  0.0000000 )
                  (  0.0000000  0.0000000 -1.0000000 )


      isym =  6     inv. 180 deg rotation - cart. axis [0,0,1]   

 cryst.   s( 6) = (     1          0          0      )
                  (     0          1          0      )
                  (     0          0         -1      )

 cart.    s( 6) = (  1.0000000  0.0000000  0.0000000 )
                  (  0.0000000  1.0000000  0.0000000 )
                  (  0.0000000  0.0000000 -1.0000000 )


      isym =  7     inv. 180 deg rotation - cart. axis [0,1,0]   

 cryst.   s( 7) = (     1          0          0      )
                  (     0         -1          0      )
                  (     0          0          1      )

 cart.    s( 7) = (  1.0000000  0.0000000  0.0000000 )
                  (  0.0000000 -1.0000000  0.0000000 )
                  (  0.0000000  0.0000000  1.0000000 )


      isym =  8     inv. 180 deg rotation - cart. axis [1,0,0]   

 cryst.   s( 8) = (    -1          0          0      )
                  (     0          1          0      )
                  (     0          0          1      )

 cart.    s( 8) = ( -1.0000000  0.0000000  0.0000000 )
                  (  0.0000000  1.0000000  0.0000000 )
                  (  0.0000000  0.0000000  1.0000000 )


     point group D_2h (mmm) 
     there are  8 classes
     the character table:

       E     C2    C2'   C2''  i     s_v   s_v'  s_v''
A_g    1.00  1.00  1.00  1.00  1.00  1.00  1.00  1.00
B_1g   1.00  1.00 -1.00 -1.00  1.00  1.00 -1.00 -1.00
B_2g   1.00 -1.00  1.00 -1.00  1.00 -1.00  1.00 -1.00
B_3g   1.00 -1.00 -1.00  1.00  1.00 -1.00 -1.00  1.00
A_u    1.00  1.00  1.00  1.00 -1.00 -1.00 -1.00 -1.00
B_1u   1.00  1.00 -1.00 -1.00 -1.00 -1.00  1.00  1.00
B_2u   1.00 -1.00  1.00 -1.00 -1.00  1.00 -1.00  1.00
B_3u   1.00 -1.00 -1.00  1.00 -1.00  1.00  1.00 -1.00

     the symmetry operations in each class and the name of the first element:

     E        1
          identity                                               
     C2       2
          180 deg rotation - cart. axis [0,0,1]                  
     C2'      4
          180 deg rotation - cart. axis [1,0,0]                  
     C2''     3
          180 deg rotation - cart. axis [0,1,0]                  
     i        5
          inversion                                              
     s_v      6
          inv. 180 deg rotation - cart. axis [0,0,1]             
     s_v'     8
          inv. 180 deg rotation - cart. axis [1,0,0]             
     s_v''    7
          inv. 180 deg rotation - cart. axis [0,1,0]             

   Cartesian axes

     site n.     atom                  positions (alat units)
         1        Y      tau(   1) = (   0.5000000   0.5000000   1.5088451  )
         2        Ba     tau(   2) = (   0.5000000   0.5000000   0.5615829  )
         3        Ba     tau(   3) = (   0.5000000   0.5000000   2.4561072  )
         4        Cu     tau(   4) = (   0.0000000   0.0000000   0.0000000  )
         5        Cu     tau(   5) = (   0.0000000   0.0000000   1.0772132  )
         6        Cu     tau(   6) = (   0.0000000   0.0000000   1.9404769  )
         7        O      tau(   7) = (   0.5000000   0.0000000   1.1379760  )
         8        O      tau(   8) = (   0.5000000   0.0000000   1.8797141  )
         9        O      tau(   9) = (   0.0000000   0.5000000   1.1346923  )
        10        O      tau(  10) = (   0.0000000   0.5000000   1.8829979  )
        11        O      tau(  11) = (   0.0000000   0.0000000   0.4705240  )
        12        O      tau(  12) = (   0.0000000   0.0000000   2.5471662  )

   Crystallographic axes

     site n.     atom                  positions (cryst. coord.)
         1        Y      tau(   1) = (  0.5000000  0.5000000  0.5000000  )
         2        Ba     tau(   2) = (  0.5000000  0.5000000  0.1860969  )
         3        Ba     tau(   3) = (  0.5000000  0.5000000  0.8139031  )
         4        Cu     tau(   4) = (  0.0000000  0.0000000  0.0000000  )
         5        Cu     tau(   5) = (  0.0000000  0.0000000  0.3569661  )
         6        Cu     tau(   6) = (  0.0000000  0.0000000  0.6430339  )
         7        O      tau(   7) = (  0.5000000  0.0000000  0.3771017  )
         8        O      tau(   8) = (  0.5000000  0.0000000  0.6228983  )
         9        O      tau(   9) = (  0.0000000  0.5000000  0.3760135  )
        10        O      tau(  10) = (  0.0000000  0.5000000  0.6239865  )
        11        O      tau(  11) = (  0.0000000  0.0000000  0.1559219  )
        12        O      tau(  12) = (  0.0000000  0.0000000  0.8440781  )

     number of k points=   101
                       cart. coord. in units 2pi/alat
        k(    1) = (   0.0000000   0.0000000   0.0000000), wk =   0.0198020
        k(    2) = (   0.0250000   0.0000000   0.0000000), wk =   0.0198020
        k(    3) = (   0.0500000   0.0000000   0.0000000), wk =   0.0198020
        k(    4) = (   0.0750000   0.0000000   0.0000000), wk =   0.0198020
        k(    5) = (   0.1000000   0.0000000   0.0000000), wk =   0.0198020
        k(    6) = (   0.1250000   0.0000000   0.0000000), wk =   0.0198020
        k(    7) = (   0.1500000   0.0000000   0.0000000), wk =   0.0198020
        k(    8) = (   0.1750000   0.0000000   0.0000000), wk =   0.0198020
        k(    9) = (   0.2000000   0.0000000   0.0000000), wk =   0.0198020
        k(   10) = (   0.2250000   0.0000000   0.0000000), wk =   0.0198020
        k(   11) = (   0.2500000   0.0000000   0.0000000), wk =   0.0198020
        k(   12) = (   0.2750000   0.0000000   0.0000000), wk =   0.0198020
        k(   13) = (   0.3000000   0.0000000   0.0000000), wk =   0.0198020
        k(   14) = (   0.3250000   0.0000000   0.0000000), wk =   0.0198020
        k(   15) = (   0.3500000   0.0000000   0.0000000), wk =   0.0198020
        k(   16) = (   0.3750000   0.0000000   0.0000000), wk =   0.0198020
        k(   17) = (   0.4000000   0.0000000   0.0000000), wk =   0.0198020
        k(   18) = (   0.4250000   0.0000000   0.0000000), wk =   0.0198020
        k(   19) = (   0.4500000   0.0000000   0.0000000), wk =   0.0198020
        k(   20) = (   0.4750000   0.0000000   0.0000000), wk =   0.0198020
        k(   21) = (   0.5000000   0.0000000   0.0000000), wk =   0.0198020
        k(   22) = (   0.5000000   0.0250000   0.0000000), wk =   0.0198020
        k(   23) = (   0.5000000   0.0500000   0.0000000), wk =   0.0198020
        k(   24) = (   0.5000000   0.0750000   0.0000000), wk =   0.0198020
        k(   25) = (   0.5000000   0.1000000   0.0000000), wk =   0.0198020
        k(   26) = (   0.5000000   0.1250000   0.0000000), wk =   0.0198020
        k(   27) = (   0.5000000   0.1500000   0.0000000), wk =   0.0198020
        k(   28) = (   0.5000000   0.1750000   0.0000000), wk =   0.0198020
        k(   29) = (   0.5000000   0.2000000   0.0000000), wk =   0.0198020
        k(   30) = (   0.5000000   0.2250000   0.0000000), wk =   0.0198020
        k(   31) = (   0.5000000   0.2500000   0.0000000), wk =   0.0198020
        k(   32) = (   0.5000000   0.2750000   0.0000000), wk =   0.0198020
        k(   33) = (   0.5000000   0.3000000   0.0000000), wk =   0.0198020
        k(   34) = (   0.5000000   0.3250000   0.0000000), wk =   0.0198020
        k(   35) = (   0.5000000   0.3500000   0.0000000), wk =   0.0198020
        k(   36) = (   0.5000000   0.3750000   0.0000000), wk =   0.0198020
        k(   37) = (   0.5000000   0.4000000   0.0000000), wk =   0.0198020
        k(   38) = (   0.5000000   0.4250000   0.0000000), wk =   0.0198020
        k(   39) = (   0.5000000   0.4500000   0.0000000), wk =   0.0198020
        k(   40) = (   0.5000000   0.4750000   0.0000000), wk =   0.0198020
        k(   41) = (   0.5000000   0.5000000   0.0000000), wk =   0.0198020
        k(   42) = (   0.4750000   0.5000000   0.0000000), wk =   0.0198020
        k(   43) = (   0.4500000   0.5000000   0.0000000), wk =   0.0198020
        k(   44) = (   0.4250000   0.5000000   0.0000000), wk =   0.0198020
        k(   45) = (   0.4000000   0.5000000   0.0000000), wk =   0.0198020
        k(   46) = (   0.3750000   0.5000000   0.0000000), wk =   0.0198020
        k(   47) = (   0.3500000   0.5000000   0.0000000), wk =   0.0198020
        k(   48) = (   0.3250000   0.5000000   0.0000000), wk =   0.0198020
        k(   49) = (   0.3000000   0.5000000   0.0000000), wk =   0.0198020
        k(   50) = (   0.2750000   0.5000000   0.0000000), wk =   0.0198020
        k(   51) = (   0.2500000   0.5000000   0.0000000), wk =   0.0198020
        k(   52) = (   0.2250000   0.5000000   0.0000000), wk =   0.0198020
        k(   53) = (   0.2000000   0.5000000   0.0000000), wk =   0.0198020
        k(   54) = (   0.1750000   0.5000000   0.0000000), wk =   0.0198020
        k(   55) = (   0.1500000   0.5000000   0.0000000), wk =   0.0198020
        k(   56) = (   0.1250000   0.5000000   0.0000000), wk =   0.0198020
        k(   57) = (   0.1000000   0.5000000   0.0000000), wk =   0.0198020
        k(   58) = (   0.0750000   0.5000000   0.0000000), wk =   0.0198020
        k(   59) = (   0.0500000   0.5000000   0.0000000), wk =   0.0198020
        k(   60) = (   0.0250000   0.5000000   0.0000000), wk =   0.0198020
        k(   61) = (   0.0000000   0.5000000   0.0000000), wk =   0.0198020
        k(   62) = (   0.0000000   0.4750000   0.0000000), wk =   0.0198020
        k(   63) = (   0.0000000   0.4500000   0.0000000), wk =   0.0198020
        k(   64) = (   0.0000000   0.4250000   0.0000000), wk =   0.0198020
        k(   65) = (   0.0000000   0.4000000   0.0000000), wk =   0.0198020
        k(   66) = (   0.0000000   0.3750000   0.0000000), wk =   0.0198020
        k(   67) = (   0.0000000   0.3500000   0.0000000), wk =   0.0198020
        k(   68) = (   0.0000000   0.3250000   0.0000000), wk =   0.0198020
        k(   69) = (   0.0000000   0.3000000   0.0000000), wk =   0.0198020
        k(   70) = (   0.0000000   0.2750000   0.0000000), wk =   0.0198020
        k(   71) = (   0.0000000   0.2500000   0.0000000), wk =   0.0198020
        k(   72) = (   0.0000000   0.2250000   0.0000000), wk =   0.0198020
        k(   73) = (   0.0000000   0.2000000   0.0000000), wk =   0.0198020
        k(   74) = (   0.0000000   0.1750000   0.0000000), wk =   0.0198020
        k(   75) = (   0.0000000   0.1500000   0.0000000), wk =   0.0198020
        k(   76) = (   0.0000000   0.1250000   0.0000000), wk =   0.0198020
        k(   77) = (   0.0000000   0.1000000   0.0000000), wk =   0.0198020
        k(   78) = (   0.0000000   0.0750000   0.0000000), wk =   0.0198020
        k(   79) = (   0.0000000   0.0500000   0.0000000), wk =   0.0198020
        k(   80) = (   0.0000000   0.0250000   0.0000000), wk =   0.0198020
        k(   81) = (   0.0000000   0.0000000   0.0000000), wk =   0.0198020
        k(   82) = (   0.0250000   0.0250000   0.0000000), wk =   0.0198020
        k(   83) = (   0.0500000   0.0500000   0.0000000), wk =   0.0198020
        k(   84) = (   0.0750000   0.0750000   0.0000000), wk =   0.0198020
        k(   85) = (   0.1000000   0.1000000   0.0000000), wk =   0.0198020
        k(   86) = (   0.1250000   0.1250000   0.0000000), wk =   0.0198020
        k(   87) = (   0.1500000   0.1500000   0.0000000), wk =   0.0198020
        k(   88) = (   0.1750000   0.1750000   0.0000000), wk =   0.0198020
        k(   89) = (   0.2000000   0.2000000   0.0000000), wk =   0.0198020
        k(   90) = (   0.2250000   0.2250000   0.0000000), wk =   0.0198020
        k(   91) = (   0.2500000   0.2500000   0.0000000), wk =   0.0198020
        k(   92) = (   0.2750000   0.2750000   0.0000000), wk =   0.0198020
        k(   93) = (   0.3000000   0.3000000   0.0000000), wk =   0.0198020
        k(   94) = (   0.3250000   0.3250000   0.0000000), wk =   0.0198020
        k(   95) = (   0.3500000   0.3500000   0.0000000), wk =   0.0198020
        k(   96) = (   0.3750000   0.3750000   0.0000000), wk =   0.0198020
        k(   97) = (   0.4000000   0.4000000   0.0000000), wk =   0.0198020
        k(   98) = (   0.4250000   0.4250000   0.0000000), wk =   0.0198020
        k(   99) = (   0.4500000   0.4500000   0.0000000), wk =   0.0198020
        k(  100) = (   0.4750000   0.4750000   0.0000000), wk =   0.0198020
        k(  101) = (   0.5000000   0.5000000   0.0000000), wk =   0.0198020

                       cryst. coord.
        k(    1) = (   0.0000000   0.0000000   0.0000000), wk =   0.0198020
        k(    2) = (   0.0250000   0.0000000   0.0000000), wk =   0.0198020
        k(    3) = (   0.0500000   0.0000000   0.0000000), wk =   0.0198020
        k(    4) = (   0.0750000   0.0000000   0.0000000), wk =   0.0198020
        k(    5) = (   0.1000000   0.0000000   0.0000000), wk =   0.0198020
        k(    6) = (   0.1250000   0.0000000   0.0000000), wk =   0.0198020
        k(    7) = (   0.1500000   0.0000000   0.0000000), wk =   0.0198020
        k(    8) = (   0.1750000   0.0000000   0.0000000), wk =   0.0198020
        k(    9) = (   0.2000000   0.0000000   0.0000000), wk =   0.0198020
        k(   10) = (   0.2250000   0.0000000   0.0000000), wk =   0.0198020
        k(   11) = (   0.2500000   0.0000000   0.0000000), wk =   0.0198020
        k(   12) = (   0.2750000   0.0000000   0.0000000), wk =   0.0198020
        k(   13) = (   0.3000000   0.0000000   0.0000000), wk =   0.0198020
        k(   14) = (   0.3250000   0.0000000   0.0000000), wk =   0.0198020
        k(   15) = (   0.3500000   0.0000000   0.0000000), wk =   0.0198020
        k(   16) = (   0.3750000   0.0000000   0.0000000), wk =   0.0198020
        k(   17) = (   0.4000000   0.0000000   0.0000000), wk =   0.0198020
        k(   18) = (   0.4250000   0.0000000   0.0000000), wk =   0.0198020
        k(   19) = (   0.4500000   0.0000000   0.0000000), wk =   0.0198020
        k(   20) = (   0.4750000   0.0000000   0.0000000), wk =   0.0198020
        k(   21) = (   0.5000000   0.0000000   0.0000000), wk =   0.0198020
        k(   22) = (   0.5000000   0.0250000   0.0000000), wk =   0.0198020
        k(   23) = (   0.5000000   0.0500000   0.0000000), wk =   0.0198020
        k(   24) = (   0.5000000   0.0750000   0.0000000), wk =   0.0198020
        k(   25) = (   0.5000000   0.1000000   0.0000000), wk =   0.0198020
        k(   26) = (   0.5000000   0.1250000   0.0000000), wk =   0.0198020
        k(   27) = (   0.5000000   0.1500000   0.0000000), wk =   0.0198020
        k(   28) = (   0.5000000   0.1750000   0.0000000), wk =   0.0198020
        k(   29) = (   0.5000000   0.2000000   0.0000000), wk =   0.0198020
        k(   30) = (   0.5000000   0.2250000   0.0000000), wk =   0.0198020
        k(   31) = (   0.5000000   0.2500000   0.0000000), wk =   0.0198020
        k(   32) = (   0.5000000   0.2750000   0.0000000), wk =   0.0198020
        k(   33) = (   0.5000000   0.3000000   0.0000000), wk =   0.0198020
        k(   34) = (   0.5000000   0.3250000   0.0000000), wk =   0.0198020
        k(   35) = (   0.5000000   0.3500000   0.0000000), wk =   0.0198020
        k(   36) = (   0.5000000   0.3750000   0.0000000), wk =   0.0198020
        k(   37) = (   0.5000000   0.4000000   0.0000000), wk =   0.0198020
        k(   38) = (   0.5000000   0.4250000   0.0000000), wk =   0.0198020
        k(   39) = (   0.5000000   0.4500000   0.0000000), wk =   0.0198020
        k(   40) = (   0.5000000   0.4750000   0.0000000), wk =   0.0198020
        k(   41) = (   0.5000000   0.5000000   0.0000000), wk =   0.0198020
        k(   42) = (   0.4750000   0.5000000   0.0000000), wk =   0.0198020
        k(   43) = (   0.4500000   0.5000000   0.0000000), wk =   0.0198020
        k(   44) = (   0.4250000   0.5000000   0.0000000), wk =   0.0198020
        k(   45) = (   0.4000000   0.5000000   0.0000000), wk =   0.0198020
        k(   46) = (   0.3750000   0.5000000   0.0000000), wk =   0.0198020
        k(   47) = (   0.3500000   0.5000000   0.0000000), wk =   0.0198020
        k(   48) = (   0.3250000   0.5000000   0.0000000), wk =   0.0198020
        k(   49) = (   0.3000000   0.5000000   0.0000000), wk =   0.0198020
        k(   50) = (   0.2750000   0.5000000   0.0000000), wk =   0.0198020
        k(   51) = (   0.2500000   0.5000000   0.0000000), wk =   0.0198020
        k(   52) = (   0.2250000   0.5000000   0.0000000), wk =   0.0198020
        k(   53) = (   0.2000000   0.5000000   0.0000000), wk =   0.0198020
        k(   54) = (   0.1750000   0.5000000   0.0000000), wk =   0.0198020
        k(   55) = (   0.1500000   0.5000000   0.0000000), wk =   0.0198020
        k(   56) = (   0.1250000   0.5000000   0.0000000), wk =   0.0198020
        k(   57) = (   0.1000000   0.5000000   0.0000000), wk =   0.0198020
        k(   58) = (   0.0750000   0.5000000   0.0000000), wk =   0.0198020
        k(   59) = (   0.0500000   0.5000000   0.0000000), wk =   0.0198020
        k(   60) = (   0.0250000   0.5000000   0.0000000), wk =   0.0198020
        k(   61) = (   0.0000000   0.5000000   0.0000000), wk =   0.0198020
        k(   62) = (   0.0000000   0.4750000   0.0000000), wk =   0.0198020
        k(   63) = (   0.0000000   0.4500000   0.0000000), wk =   0.0198020
        k(   64) = (   0.0000000   0.4250000   0.0000000), wk =   0.0198020
        k(   65) = (   0.0000000   0.4000000   0.0000000), wk =   0.0198020
        k(   66) = (   0.0000000   0.3750000   0.0000000), wk =   0.0198020
        k(   67) = (   0.0000000   0.3500000   0.0000000), wk =   0.0198020
        k(   68) = (   0.0000000   0.3250000   0.0000000), wk =   0.0198020
        k(   69) = (   0.0000000   0.3000000   0.0000000), wk =   0.0198020
        k(   70) = (   0.0000000   0.2750000   0.0000000), wk =   0.0198020
        k(   71) = (   0.0000000   0.2500000   0.0000000), wk =   0.0198020
        k(   72) = (   0.0000000   0.2250000   0.0000000), wk =   0.0198020
        k(   73) = (   0.0000000   0.2000000   0.0000000), wk =   0.0198020
        k(   74) = (   0.0000000   0.1750000   0.0000000), wk =   0.0198020
        k(   75) = (   0.0000000   0.1500000   0.0000000), wk =   0.0198020
        k(   76) = (   0.0000000   0.1250000   0.0000000), wk =   0.0198020
        k(   77) = (   0.0000000   0.1000000   0.0000000), wk =   0.0198020
        k(   78) = (   0.0000000   0.0750000   0.0000000), wk =   0.0198020
        k(   79) = (   0.0000000   0.0500000   0.0000000), wk =   0.0198020
        k(   80) = (   0.0000000   0.0250000   0.0000000), wk =   0.0198020
        k(   81) = (   0.0000000   0.0000000   0.0000000), wk =   0.0198020
        k(   82) = (   0.0250000   0.0250000   0.0000000), wk =   0.0198020
        k(   83) = (   0.0500000   0.0500000   0.0000000), wk =   0.0198020
        k(   84) = (   0.0750000   0.0750000   0.0000000), wk =   0.0198020
        k(   85) = (   0.1000000   0.1000000   0.0000000), wk =   0.0198020
        k(   86) = (   0.1250000   0.1250000   0.0000000), wk =   0.0198020
        k(   87) = (   0.1500000   0.1500000   0.0000000), wk =   0.0198020
        k(   88) = (   0.1750000   0.1750000   0.0000000), wk =   0.0198020
        k(   89) = (   0.2000000   0.2000000   0.0000000), wk =   0.0198020
        k(   90) = (   0.2250000   0.2250000   0.0000000), wk =   0.0198020
        k(   91) = (   0.2500000   0.2500000   0.0000000), wk =   0.0198020
        k(   92) = (   0.2750000   0.2750000   0.0000000), wk =   0.0198020
        k(   93) = (   0.3000000   0.3000000   0.0000000), wk =   0.0198020
        k(   94) = (   0.3250000   0.3250000   0.0000000), wk =   0.0198020
        k(   95) = (   0.3500000   0.3500000   0.0000000), wk =   0.0198020
        k(   96) = (   0.3750000   0.3750000   0.0000000), wk =   0.0198020
        k(   97) = (   0.4000000   0.4000000   0.0000000), wk =   0.0198020
        k(   98) = (   0.4250000   0.4250000   0.0000000), wk =   0.0198020
        k(   99) = (   0.4500000   0.4500000   0.0000000), wk =   0.0198020
        k(  100) = (   0.4750000   0.4750000   0.0000000), wk =   0.0198020
        k(  101) = (   0.5000000   0.5000000   0.0000000), wk =   0.0198020

     Dense  grid:   250811 G-vectors     FFT dimensions: (  60,  60, 180)

     Smooth grid:    74333 G-vectors     FFT dimensions: (  40,  40, 120)

     Dynamical RAM for                 wfc:       3.33 MB

     Dynamical RAM for     wfc (w. buffer):       3.33 MB

     Dynamical RAM for           str. fact:       3.83 MB

     Dynamical RAM for           local pot:       0.00 MB

     Dynamical RAM for          nlocal pot:       7.09 MB

     Dynamical RAM for                qrad:      13.92 MB

     Dynamical RAM for          rho,v,vnew:       6.58 MB

     Dynamical RAM for           G-vectors:       3.73 MB

     Dynamical RAM for          h,s,v(r/c):       1.62 MB

     Dynamical RAM for          <psi|beta>:       0.29 MB

     Dynamical RAM for                 psi:       6.66 MB

     Dynamical RAM for                hpsi:       6.66 MB

     Dynamical RAM for                spsi:       6.66 MB

     Dynamical RAM for      wfcinit/wfcrot:       7.47 MB

     Dynamical RAM for           addusdens:     342.52 MB

     Estimated static dynamical RAM per process >      49.44 MB

     Estimated max dynamical RAM per process >     391.96 MB

     Estimated total dynamical RAM >       1.53 GB

     Check: negative core charge=   -0.000002

     The potential is recalculated from file :
     ./YBCO6/YBCO6.save/charge-density


     negative rho (up, down):  1.791E-01 0.000E+00
     Starting wfcs are  102 randomized atomic wfcs

     Band Structure Calculation
     Davidson diagonalization with overlap

     Computing kpt #:     1  of   101
     total cpu time spent up to now is        3.7 secs

     Computing kpt #:     2  of   101
     total cpu time spent up to now is        6.5 secs

     Computing kpt #:     3  of   101
     total cpu time spent up to now is        9.3 secs

     Computing kpt #:     4  of   101
     total cpu time spent up to now is       12.2 secs

     Computing kpt #:     5  of   101
     total cpu time spent up to now is       14.9 secs

     Computing kpt #:     6  of   101
     total cpu time spent up to now is       17.6 secs

     Computing kpt #:     7  of   101
     total cpu time spent up to now is       20.4 secs

     Computing kpt #:     8  of   101
     total cpu time spent up to now is       23.5 secs

     Computing kpt #:     9  of   101
     total cpu time spent up to now is       26.8 secs

     Computing kpt #:    10  of   101
     total cpu time spent up to now is       30.2 secs

     Computing kpt #:    11  of   101
     total cpu time spent up to now is       33.4 secs

     Computing kpt #:    12  of   101
     total cpu time spent up to now is       36.8 secs

     Computing kpt #:    13  of   101
     total cpu time spent up to now is       39.8 secs

     Computing kpt #:    14  of   101
     total cpu time spent up to now is       42.9 secs

     Computing kpt #:    15  of   101
     total cpu time spent up to now is       46.0 secs

     Computing kpt #:    16  of   101
     total cpu time spent up to now is       49.2 secs

     Computing kpt #:    17  of   101
     total cpu time spent up to now is       52.2 secs

     Computing kpt #:    18  of   101
     total cpu time spent up to now is       55.3 secs

     Computing kpt #:    19  of   101
     total cpu time spent up to now is       58.3 secs

     Computing kpt #:    20  of   101
     total cpu time spent up to now is       61.3 secs

     Computing kpt #:    21  of   101
     total cpu time spent up to now is       64.4 secs

     Computing kpt #:    22  of   101
     total cpu time spent up to now is       67.4 secs

     Computing kpt #:    23  of   101
     total cpu time spent up to now is       70.6 secs

     Computing kpt #:    24  of   101
     total cpu time spent up to now is       73.6 secs

     Computing kpt #:    25  of   101
     total cpu time spent up to now is       76.7 secs

     Computing kpt #:    26  of   101
     total cpu time spent up to now is       79.8 secs

     Computing kpt #:    27  of   101
     total cpu time spent up to now is       83.0 secs

     Computing kpt #:    28  of   101
     total cpu time spent up to now is       86.3 secs

     Computing kpt #:    29  of   101
     total cpu time spent up to now is       89.6 secs

     Computing kpt #:    30  of   101
     total cpu time spent up to now is       92.9 secs

     Computing kpt #:    31  of   101
     total cpu time spent up to now is       96.2 secs

     Computing kpt #:    32  of   101
     total cpu time spent up to now is       99.3 secs

     Computing kpt #:    33  of   101
     total cpu time spent up to now is      102.4 secs

     Computing kpt #:    34  of   101
     total cpu time spent up to now is      105.7 secs

     Computing kpt #:    35  of   101
     total cpu time spent up to now is      109.0 secs

     Computing kpt #:    36  of   101
     total cpu time spent up to now is      112.1 secs

     Computing kpt #:    37  of   101
     total cpu time spent up to now is      115.2 secs

     Computing kpt #:    38  of   101
     total cpu time spent up to now is      118.3 secs

     Computing kpt #:    39  of   101
     total cpu time spent up to now is      121.4 secs

     Computing kpt #:    40  of   101
     total cpu time spent up to now is      124.5 secs

     Computing kpt #:    41  of   101
     total cpu time spent up to now is      127.6 secs

     Computing kpt #:    42  of   101
     total cpu time spent up to now is      130.7 secs

     Computing kpt #:    43  of   101
     total cpu time spent up to now is      133.8 secs

     Computing kpt #:    44  of   101
     total cpu time spent up to now is      136.8 secs

     Computing kpt #:    45  of   101
     total cpu time spent up to now is      139.9 secs

     Computing kpt #:    46  of   101
     total cpu time spent up to now is      142.9 secs

     Computing kpt #:    47  of   101
     total cpu time spent up to now is      146.0 secs

     Computing kpt #:    48  of   101
     total cpu time spent up to now is      149.1 secs

     Computing kpt #:    49  of   101
     total cpu time spent up to now is      152.2 secs

     Computing kpt #:    50  of   101
     total cpu time spent up to now is      155.4 secs

     Computing kpt #:    51  of   101
     total cpu time spent up to now is      158.5 secs

     Computing kpt #:    52  of   101
     total cpu time spent up to now is      161.6 secs

     Computing kpt #:    53  of   101
     total cpu time spent up to now is      165.0 secs

     Computing kpt #:    54  of   101
     total cpu time spent up to now is      168.4 secs

     Computing kpt #:    55  of   101
     total cpu time spent up to now is      171.7 secs

     Computing kpt #:    56  of   101
     total cpu time spent up to now is      174.8 secs

     Computing kpt #:    57  of   101
     total cpu time spent up to now is      178.0 secs

     Computing kpt #:    58  of   101
     total cpu time spent up to now is      181.1 secs

     Computing kpt #:    59  of   101
     total cpu time spent up to now is      184.2 secs

     Computing kpt #:    60  of   101
     total cpu time spent up to now is      187.3 secs

     Computing kpt #:    61  of   101
     total cpu time spent up to now is      190.4 secs

     Computing kpt #:    62  of   101
     total cpu time spent up to now is      193.5 secs

     Computing kpt #:    63  of   101
     total cpu time spent up to now is      196.6 secs

     Computing kpt #:    64  of   101
     total cpu time spent up to now is      199.7 secs

     Computing kpt #:    65  of   101
     total cpu time spent up to now is      203.4 secs

     Computing kpt #:    66  of   101
     total cpu time spent up to now is      206.4 secs

     Computing kpt #:    67  of   101
     total cpu time spent up to now is      209.5 secs

     Computing kpt #:    68  of   101
     total cpu time spent up to now is      212.6 secs

     Computing kpt #:    69  of   101
     total cpu time spent up to now is      215.6 secs

     Computing kpt #:    70  of   101
     total cpu time spent up to now is      218.7 secs

     Computing kpt #:    71  of   101
     total cpu time spent up to now is      222.1 secs

     Computing kpt #:    72  of   101
     total cpu time spent up to now is      225.2 secs

     Computing kpt #:    73  of   101
     total cpu time spent up to now is      228.6 secs

     Computing kpt #:    74  of   101
     total cpu time spent up to now is      231.8 secs

     Computing kpt #:    75  of   101
     total cpu time spent up to now is      235.1 secs

     Computing kpt #:    76  of   101
     total cpu time spent up to now is      238.5 secs

     Computing kpt #:    77  of   101
     total cpu time spent up to now is      241.8 secs

     Computing kpt #:    78  of   101
     total cpu time spent up to now is      245.1 secs

     Computing kpt #:    79  of   101
     total cpu time spent up to now is      248.4 secs

     Computing kpt #:    80  of   101
     total cpu time spent up to now is      251.7 secs

     Computing kpt #:    81  of   101
     total cpu time spent up to now is      255.0 secs

     Computing kpt #:    82  of   101
     total cpu time spent up to now is      258.3 secs

     Computing kpt #:    83  of   101
     total cpu time spent up to now is      261.6 secs

     Computing kpt #:    84  of   101
     total cpu time spent up to now is      264.9 secs

     Computing kpt #:    85  of   101
     total cpu time spent up to now is      268.3 secs

     Computing kpt #:    86  of   101
     total cpu time spent up to now is      271.6 secs

     Computing kpt #:    87  of   101
     total cpu time spent up to now is      274.7 secs

     Computing kpt #:    88  of   101
     total cpu time spent up to now is      278.0 secs

     Computing kpt #:    89  of   101
     total cpu time spent up to now is      281.3 secs

     Computing kpt #:    90  of   101
     total cpu time spent up to now is      284.3 secs

     Computing kpt #:    91  of   101
     total cpu time spent up to now is      287.4 secs

     Computing kpt #:    92  of   101
     total cpu time spent up to now is      290.6 secs

     Computing kpt #:    93  of   101
     total cpu time spent up to now is      293.7 secs

     Computing kpt #:    94  of   101
     total cpu time spent up to now is      297.0 secs

     Computing kpt #:    95  of   101
     c_bands:  1 eigenvalues not converged
     total cpu time spent up to now is      301.2 secs

     Computing kpt #:    96  of   101
     total cpu time spent up to now is      304.8 secs

     Computing kpt #:    97  of   101
     total cpu time spent up to now is      308.1 secs

     Computing kpt #:    98  of   101
     total cpu time spent up to now is      311.4 secs

     Computing kpt #:    99  of   101
     total cpu time spent up to now is      314.5 secs

     Computing kpt #:   100  of   101
     total cpu time spent up to now is      317.6 secs

     Computing kpt #:   101  of   101
     total cpu time spent up to now is      320.7 secs

     ethr =  8.06E-12,  avg # of iterations = 60.6

     total cpu time spent up to now is      320.7 secs

     End of band structure calculation

          k = 0.0000 0.0000 0.0000 (  9267 PWs)   bands (ev):

  -101.2846-101.2845-100.9209 -59.2588 -59.2587 -59.2533 -59.2532 -58.9117
   -58.8610 -58.8602 -58.6983 -58.6981 -30.7701 -16.2500 -16.2373 -11.3008
   -10.8050 -10.8021  -7.7836  -6.8871  -6.7163  -6.5402  -6.4430  -6.2794
    -1.6474  -1.3802  -1.1103  -1.1094  -1.0974  -1.0964   5.0405   5.3184
     5.3227   5.4707   5.6463   5.6568   6.4544   6.5555   6.9509   6.9514
     7.4957   7.5577   7.5638   7.6106   7.7932   7.8035   7.8139   7.8172
     7.8177   7.9420   8.1595   8.1700   8.2032   8.4532   8.4550   8.4964
     8.7066   8.8975   8.9157   9.0410   9.1130   9.7160   9.7176  12.1938
    12.9049  13.0931  13.2410  14.3294  14.8523  15.1296  15.1329  15.2572
    15.6298  15.9740  16.7031  16.7120  17.0940  17.2755  17.4232  17.4561
    18.3395  18.3885  18.4702  18.6435  18.9990  19.1419  19.1517  19.5209
    19.6051  19.6466  19.6513  19.8970  19.9005  20.1257

          k = 0.0250 0.0000 0.0000 (  9263 PWs)   bands (ev):

  -101.2846-101.2845-100.9209 -59.2588 -59.2587 -59.2533 -59.2532 -58.9117
   -58.8610 -58.8602 -58.6983 -58.6981 -30.7700 -16.2493 -16.2367 -11.2995
   -10.8087 -10.8020  -7.7791  -6.8873  -6.7183  -6.5394  -6.4451  -6.2810
    -1.6471  -1.3805  -1.1098  -1.1091  -1.0962  -1.0961   5.0386   5.3189
     5.3203   5.4707   5.6395   5.6574   6.4526   6.5559   6.9473   6.9475
     7.4809   7.5500   7.5562   7.5905   7.7447   7.8145   7.8180   7.8329
     7.8723   7.9409   8.1560   8.1728   8.2030   8.4563   8.4573   8.4647
     8.6777   8.8997   8.9431   9.0589   9.1277   9.7129   9.7136  12.2038
    12.9166  13.0936  13.2527  14.3351  14.8662  15.1152  15.1339  15.2559
    15.6470  15.9784  16.6864  16.7103  17.1043  17.3011  17.4310  17.4684
    18.3257  18.3879  18.4629  18.6418  19.0104  19.1358  19.1448  19.5231
    19.5994  19.6431  19.6567  19.8970  19.8978  20.1213

          k = 0.0500 0.0000 0.0000 (  9254 PWs)   bands (ev):

  -101.2846-101.2845-100.9209 -59.2588 -59.2587 -59.2533 -59.2532 -58.9117
   -58.8610 -58.8602 -58.6983 -58.6981 -30.7698 -16.2473 -16.2347 -11.2959
   -10.8198 -10.8016  -7.7657  -6.8879  -6.7244  -6.5369  -6.4511  -6.2859
    -1.6464  -1.3815  -1.1109  -1.1053  -1.0954  -1.0923   5.0327   5.3075
     5.3260   5.4690   5.6215   5.6591   6.4471   6.5564   6.9352   6.9374
     7.4411   7.5124   7.5420   7.5525   7.7154   7.8131   7.8182   7.8668
     7.9382   7.9557   8.1475   8.1807   8.2025   8.3888   8.4635   8.4656
     8.6141   8.9066   9.0019   9.0786   9.1887   9.7020   9.7037  12.2327
    12.9509  13.0957  13.2876  14.3501  14.9074  15.0709  15.1466  15.2524
    15.6936  15.9915  16.6439  16.7061  17.1324  17.3701  17.4542  17.5043
    18.2886  18.3861  18.4319  18.6458  19.0412  19.0951  19.1530  19.5297
    19.5825  19.6329  19.6678  19.8897  19.8971  20.1074

          k = 0.0750 0.0000 0.0000 (  9256 PWs)   bands (ev):

  -101.2846-101.2845-100.9209 -59.2588 -59.2587 -59.2533 -59.2532 -58.9117
   -58.8610 -58.8602 -58.6982 -58.6981 -30.7694 -16.2440 -16.2314 -11.2899
   -10.8379 -10.8011  -7.7440  -6.8893  -6.7345  -6.5329  -6.4611  -6.2936
    -1.6451  -1.3831  -1.1128  -1.0991  -1.0942  -1.0860   5.0223   5.2882
     5.3355   5.4597   5.6008   5.6619   6.4377   6.5552   6.9155   6.9207
     7.3890   7.4578   7.4797   7.5490   7.7038   7.8039   7.8118   7.9048
     7.9364   8.0308   8.1391   8.1918   8.2026   8.3072   8.4717   8.4810
     8.5387   8.9184   9.0695   9.0868   9.2819   9.6841   9.6889  12.2766
    13.0050  13.1033  13.3456  14.3686  14.9751  15.0194  15.1664  15.2479
    15.7607  16.0121  16.5888  16.7009  17.1707  17.4681  17.4917  17.5609
    18.2371  18.3627  18.3833  18.6709  19.0436  19.0840  19.1654  19.5403
    19.5557  19.6167  19.6751  19.8765  19.8971  20.0847

          k = 0.1000 0.0000 0.0000 (  9254 PWs)   bands (ev):

  -101.2846-101.2845-100.9209 -59.2588 -59.2587 -59.2533 -59.2532 -58.9117
   -58.8610 -58.8602 -58.6982 -58.6981 -30.7689 -16.2394 -16.2270 -11.2816
   -10.8622 -10.8003  -7.7144  -6.8918  -6.7484  -6.5275  -6.4745  -6.3035
    -1.6434  -1.3850  -1.1153  -1.0927  -1.0907  -1.0774   5.0065   5.2605
     5.3486   5.4339   5.5895   5.6660   6.4242   6.5503   6.8889   6.8975
     7.3363   7.3923   7.4105   7.5475   7.7018   7.7838   7.7915   7.9400
     7.9407   8.0460   8.1357   8.1959   8.2118   8.2832   8.4497   8.4904
     8.5021   8.9355   9.0922   9.1379   9.3812   9.6626   9.6692  12.3287
    13.0643  13.1330  13.4260  14.3805  14.9825  15.0675  15.1882  15.2481
    15.8424  16.0387  16.5302  16.6968  17.2097  17.5423  17.5845  17.6345
    18.1804  18.2555  18.3795  18.7204  18.9923  19.1326  19.1794  19.5216
    19.5542  19.5954  19.6727  19.8589  19.8971  20.0560

          k = 0.1250 0.0000 0.0000 (  9244 PWs)   bands (ev):

  -101.2846-101.2845-100.9209 -59.2588 -59.2587 -59.2533 -59.2532 -58.9117
   -58.8610 -58.8602 -58.6982 -58.6981 -30.7683 -16.2338 -16.2214 -11.2713
   -10.8918 -10.7994  -7.6778  -6.8960  -6.7659  -6.5210  -6.4910  -6.3150
    -1.6411  -1.3871  -1.1183  -1.0909  -1.0802  -1.0667   4.9839   5.2242
     5.3655   5.3907   5.5921   5.6713   6.4064   6.5407   6.8563   6.8683
     7.2902   7.3198   7.3374   7.5486   7.7042   7.7522   7.7564   7.9497
     7.9720   7.9759   8.1392   8.1934   8.2276   8.3483   8.3699   8.5006
     8.5283   8.9579   9.0972   9.2039   9.4701   9.6452   9.6456  12.3790
    13.1043  13.2134  13.5284  14.3753  14.9784  15.1823  15.1968  15.2682
    15.9355  16.0701  16.4722  16.6955  17.2415  17.6042  17.7129  17.7209
    18.1213  18.1257  18.3750  18.7875  18.9483  19.1829  19.1895  19.4853
    19.5699  19.5703  19.6599  19.8384  19.8971  20.0244

          k = 0.1500 0.0000 0.0000 (  9240 PWs)   bands (ev):

  -101.2846-101.2845-100.9209 -59.2588 -59.2587 -59.2533 -59.2532 -58.9117
   -58.8610 -58.8602 -58.6982 -58.6982 -30.7675 -16.2272 -16.2149 -11.2591
   -10.9258 -10.7983  -7.6353  -6.9026  -6.7866  -6.5136  -6.5099  -6.3272
    -1.6382  -1.3892  -1.1217  -1.0891  -1.0677  -1.0541   4.9527   5.1792
     5.3389   5.3859   5.6040   5.6780   6.3843   6.5267   6.8187   6.8335
     7.2428   7.2540   7.2620   7.5498   7.7073   7.7100   7.7119   7.8808
     7.9607   7.9983   8.1497   8.1893   8.2436   8.2917   8.4459   8.5155
     8.5587   8.9854   9.1020   9.2653   9.5196   9.6189   9.6573  12.4147
    13.1482  13.3263  13.6515  14.3519  15.0141  15.1894  15.3116  15.3162
    16.0372  16.1051  16.4169  16.6979  17.2614  17.6751  17.8156  17.8491
    17.9724  18.0772  18.3702  18.8412  18.9377  19.1860  19.2334  19.4561
    19.5429  19.5835  19.6396  19.8184  19.8970  19.9917

          k = 0.1750 0.0000 0.0000 (  9250 PWs)   bands (ev):

  -101.2846-101.2845-100.9209 -59.2588 -59.2587 -59.2533 -59.2532 -58.9117
   -58.8610 -58.8602 -58.6982 -58.6982 -30.7667 -16.2197 -16.2076 -11.2453
   -10.9630 -10.7971  -7.5878  -6.9121  -6.8100  -6.5303  -6.5058  -6.3394
    -1.6349  -1.3909  -1.1253  -1.0873  -1.0537  -1.0398   4.9109   5.1259
     5.2872   5.4097   5.6199   5.6861   6.3582   6.5100   6.7777   6.7938
     7.1634   7.1856   7.2287   7.5449   7.6591   7.6663   7.7054   7.7907
     7.9648   8.0198   8.1655   8.1842   8.2279   8.2581   8.5334   8.5518
     8.5922   9.0170   9.1067   9.3210   9.5127   9.5904   9.7150  12.4248
    13.2142  13.4552  13.7941  14.3215  15.0829  15.1759  15.3685  15.4640
    16.1434  16.1437  16.3665  16.7048  17.2692  17.7529  17.8199  17.9144
    17.9896  18.0370  18.3654  18.8240  19.0102  19.1567  19.2842  19.4456
    19.5153  19.5872  19.6163  19.8070  19.8969  19.9587

          k = 0.2000 0.0000 0.0000 (  9246 PWs)   bands (ev):

  -101.2846-101.2845-100.9209 -59.2588 -59.2587 -59.2533 -59.2532 -58.9117
   -58.8610 -58.8602 -58.6982 -58.6982 -30.7658 -16.2116 -16.1996 -11.2302
   -11.0024 -10.7957  -7.5365  -6.9253  -6.8355  -6.5514  -6.4981  -6.3508
    -1.6310  -1.3922  -1.1292  -1.0857  -1.0384  -1.0242   4.8578   5.0653
     5.2412   5.4369   5.6361   5.6957   6.3285   6.4932   6.7345   6.7497
     7.0829   7.1088   7.2133   7.5240   7.6015   7.6280   7.6682   7.7428
     7.9511   8.0370   8.1684   8.1784   8.2096   8.2708   8.5544   8.6275
     8.6592   9.0519   9.1110   9.3699   9.4840   9.5609   9.7837  12.4049
    13.3047  13.5901  13.9542  14.3016  15.1599  15.1730  15.4354  15.6163
    16.1857  16.2491  16.3267  16.7161  17.2693  17.6727  17.8353  18.0027
    18.0123  18.1323  18.3613  18.7842  19.0981  19.1080  19.3350  19.4562
    19.4895  19.5725  19.5951  19.8153  19.8966  19.9256

          k = 0.2250 0.0000 0.0000 (  9262 PWs)   bands (ev):

  -101.2846-101.2845-100.9209 -59.2588 -59.2587 -59.2533 -59.2533 -58.9117
   -58.8610 -58.8602 -58.6982 -58.6982 -30.7648 -16.2031 -16.1912 -11.2141
   -11.0428 -10.7943  -7.4824  -6.9423  -6.8623  -6.5723  -6.4911  -6.3609
    -1.6268  -1.3928  -1.1331  -1.0844  -1.0221  -1.0076   4.7945   4.9988
     5.2033   5.4672   5.6501   5.7068   6.2961   6.4791   6.6905   6.7024
     7.0026   7.0323   7.2060   7.4840   7.5390   7.5966   7.5971   7.7387
     7.9178   8.0508   8.1614   8.1720   8.2402   8.2817   8.5792   8.6633
     8.7651   9.0888   9.1150   9.4113   9.4505   9.5314   9.8471  12.3576
    13.4126  13.7184  14.1292  14.3116  15.1429  15.2739  15.5109  15.7528
    16.2371  16.3112  16.3443  16.7317  17.2705  17.5379  17.9200  17.9738
    18.1037  18.2708  18.3591  18.7410  19.0168  19.2002  19.3780  19.4682
    19.4802  19.5462  19.5829  19.8474  19.8933  19.8962

          k = 0.2500 0.0000 0.0000 (  9256 PWs)   bands (ev):

  -101.2846-101.2846-100.9209 -59.2588 -59.2587 -59.2533 -59.2533 -58.9117
   -58.8610 -58.8602 -58.6982 -58.6982 -30.7638 -16.1942 -16.1825 -11.1973
   -11.0832 -10.7929  -7.4268  -6.9631  -6.8897  -6.5925  -6.4851  -6.3691
    -1.6222  -1.3927  -1.1370  -1.0836  -1.0053  -0.9905   4.7241   4.9283
     5.1733   5.5005   5.6600   5.7194   6.2619   6.4704   6.6467   6.6527
     6.9236   6.9569   7.2035   7.4334   7.4738   7.5310   7.5597   7.7416
     7.8787   8.0618   8.1653   8.1693   8.2850   8.2909   8.6079   8.6988
     8.8669   9.1189   9.1264   9.4174   9.4448   9.5027   9.9015  12.2890
    13.5258  13.8259  14.3162  14.3711  15.1257  15.3778  15.5938  15.8362
    16.3198  16.3340  16.4173  16.7512  17.2794  17.4266  17.9461  18.0050
    18.1820  18.3613  18.4004  18.6973  18.9200  19.2692  19.3798  19.4543
    19.5094  19.5483  19.5885  19.8642  19.8743  19.8956

          k = 0.2750 0.0000 0.0000 (  9282 PWs)   bands (ev):

  -101.2846-101.2846-100.9209 -59.2588 -59.2587 -59.2533 -59.2533 -58.9117
   -58.8610 -58.8602 -58.6982 -58.6982 -30.7629 -16.1854 -16.1738 -11.1804
   -11.1227 -10.7915  -7.3709  -6.9871  -6.9169  -6.6117  -6.4807  -6.3752
    -1.6173  -1.3917  -1.1407  -1.0832  -0.9883  -0.9732   4.6505   4.8560
     5.1498   5.5365   5.6645   5.7336   6.2272   6.4689   6.6017   6.6038
     6.8468   6.8831   7.2018   7.3796   7.4079   7.4784   7.5096   7.7458
     7.8462   8.0705   8.1584   8.1850   8.2986   8.3391   8.6405   8.7329
     8.9613   9.1240   9.1636   9.3873   9.4701   9.4755   9.9460  12.2053
    13.6273  13.9134  14.4869  14.5114  15.1087  15.4784  15.6832  15.8478
    16.3813  16.4576  16.4654  16.7739  17.2551  17.3939  17.9169  18.0886
    18.2389  18.3720  18.5146  18.6544  18.8125  19.3029  19.3253  19.4505
    19.5381  19.5975  19.6155  19.8434  19.8555  19.8947

          k = 0.3000 0.0000 0.0000 (  9288 PWs)   bands (ev):

  -101.2846-101.2846-100.9209 -59.2588 -59.2587 -59.2533 -59.2533 -58.9117
   -58.8610 -58.8602 -58.6982 -58.6982 -30.7619 -16.1767 -16.1653 -11.1637
   -11.1603 -10.7901  -7.3159  -7.0132  -6.9429  -6.6296  -6.4782  -6.3792
    -1.6124  -1.3899  -1.1442  -1.0833  -0.9716  -0.9561   4.5770   4.7842
     5.1315   5.5747   5.6633   5.7492   6.1931   6.4758   6.5506   6.5625
     6.7732   6.8116   7.1964   7.3254   7.3432   7.4424   7.4484   7.7506
     7.8227   8.0775   8.1517   8.2031   8.3051   8.4007   8.6762   8.7650
     9.0398   9.1354   9.1994   9.3635   9.4502   9.4874   9.9807  12.1124
    13.6993  14.0034  14.6442  14.7103  15.0925  15.5712  15.7778  15.8147
    16.4471  16.4638  16.6508  16.7989  17.1724  17.4682  17.8852  18.1690
    18.2696  18.3928  18.6073  18.6131  18.6976  19.2481  19.3064  19.4590
    19.5623  19.6465  19.6598  19.8333  19.8414  19.8935

          k = 0.3250 0.0000 0.0000 (  9296 PWs)   bands (ev):

  -101.2846-101.2846-100.9209 -59.2588 -59.2587 -59.2533 -59.2533 -58.9117
   -58.8610 -58.8602 -58.6982 -58.6982 -30.7610 -16.1684 -16.1571 -11.1953
   -11.1475 -10.7888  -7.2635  -7.0402  -6.9667  -6.6462  -6.4778  -6.3811
    -1.6076  -1.3873  -1.1475  -1.0840  -0.9555  -0.9398   4.5068   4.7150
     5.1173   5.6149   5.6570   5.7660   6.1606   6.4912   6.5004   6.5235
     6.7037   6.7434   7.1844   7.2709   7.2814   7.3827   7.4240   7.7557
     7.8063   8.0831   8.1454   8.2209   8.3106   8.4676   8.7141   8.7945
     9.0832   9.1660   9.2328   9.3521   9.4273   9.4968  10.0061  12.0153
    13.7381  14.1094  14.8230  14.9081  15.0775  15.6534  15.7643  15.8759
    16.4447  16.5239  16.8254  16.8524  17.0841  17.5872  17.8525  18.2449
    18.2817  18.4150  18.5744  18.5785  18.6718  19.1682  19.2933  19.4802
    19.5796  19.6593  19.7172  19.8131  19.8655  19.8917

          k = 0.3500 0.0000 0.0000 (  9302 PWs)   bands (ev):

  -101.2846-101.2846-100.9209 -59.2588 -59.2587 -59.2533 -59.2533 -58.9117
   -58.8610 -58.8602 -58.6982 -58.6982 -30.7601 -16.1608 -16.1496 -11.2270
   -11.1325 -10.7875  -7.2155  -7.0669  -6.9867  -6.6614  -6.4795  -6.3814
    -1.6029  -1.3843  -1.1504  -1.0851  -0.9406  -0.9245   4.4420   4.6506
     5.1064   5.6468   5.6562   5.7837   6.1309   6.4520   6.4874   6.5142
     6.6393   6.6793   7.1666   7.2146   7.2242   7.3203   7.4201   7.7612
     7.7942   8.0876   8.1395   8.2371   8.3152   8.5372   8.7527   8.8209
     9.0950   9.1997   9.2632   9.3647   9.4070   9.4990  10.0232  11.9185
    13.7556  14.2239  15.0083  15.0639  15.0990  15.7099  15.7232  15.9754
    16.4119  16.6094  16.8522  16.9997  17.0497  17.7273  17.8252  18.2856
    18.3149  18.4293  18.4585  18.5390  18.6997  19.1006  19.2729  19.5125
    19.5889  19.6557  19.7646  19.7965  19.8892  19.9024

          k = 0.3750 0.0000 0.0000 (  9332 PWs)   bands (ev):

  -101.2846-101.2846-100.9209 -59.2588 -59.2587 -59.2533 -59.2533 -58.9117
   -58.8610 -58.8602 -58.6983 -58.6982 -30.7594 -16.1539 -16.1429 -11.2548
   -11.1189 -10.7864  -7.1746  -7.0918  -7.0010  -6.6749  -6.4831  -6.3806
    -1.5987  -1.3809  -1.1529  -1.0865  -0.9272  -0.9109   4.3846   4.5928
     5.0983   5.6343   5.6978   5.8016   6.1048   6.4063   6.4550   6.5437
     6.5810   6.6209   7.1462   7.1547   7.1731   7.2670   7.4254   7.7668
     7.7851   8.0912   8.1342   8.2513   8.3190   8.6069   8.7900   8.8438
     9.0972   9.2106   9.2900   9.3896   9.4048   9.4951  10.0329  11.8266
    13.7630  14.3362  15.0520  15.1896  15.2768  15.6583  15.7802  16.0735
    16.3738  16.7017  16.8781  16.9202  17.2183  17.8185  17.8740  18.2865
    18.3407  18.3784  18.4336  18.5075  18.6835  19.0577  19.2509  19.5525
    19.5906  19.6477  19.7834  19.8039  19.8858  19.9321

          k = 0.4000 0.0000 0.0000 (  9298 PWs)   bands (ev):

  -101.2846-101.2846-100.9209 -59.2588 -59.2587 -59.2533 -59.2533 -58.9117
   -58.8610 -58.8602 -58.6983 -58.6982 -30.7588 -16.1480 -16.1371 -11.2783
   -11.1072 -10.7855  -7.1444  -7.1139  -7.0069  -6.6864  -6.4882  -6.3790
    -1.5950  -1.3775  -1.1551  -1.0880  -0.9156  -0.8991   4.3359   4.5433
     5.0924   5.6214   5.7383   5.8190   6.0827   6.3641   6.4271   6.5300
     6.5697   6.5782   7.0919   7.1268   7.1294   7.2254   7.4348   7.7724
     7.7782   8.0939   8.1297   8.2629   8.3220   8.6736   8.8236   8.8630
     9.0966   9.2071   9.3125   9.3752   9.4561   9.4864  10.0366  11.7436
    13.7659  14.4384  15.0420  15.3590  15.4335  15.6150  15.8237  16.1664
    16.3360  16.7983  16.8472  16.9019  17.3252  17.8575  18.0150  18.2313
    18.2867  18.4299  18.4325  18.4801  18.6311  19.0374  19.2314  19.5864
    19.5958  19.6409  19.7787  19.8330  19.8810  19.9446

          k = 0.4250 0.0000 0.0000 (  9292 PWs)   bands (ev):

  -101.2846-101.2846-100.9209 -59.2588 -59.2587 -59.2534 -59.2533 -58.9117
   -58.8610 -58.8602 -58.6983 -58.6982 -30.7582 -16.1433 -16.1324 -11.2969
   -11.0977 -10.7847  -7.1321  -7.1274  -7.0029  -6.6958  -6.4938  -6.3772
    -1.5920  -1.3744  -1.1567  -1.0896  -0.9063  -0.8895   4.2969   4.5034
     5.0883   5.6095   5.7758   5.8349   6.0653   6.3266   6.4045   6.4879
     6.5276   6.6159   7.0299   7.0942   7.1102   7.1945   7.4448   7.7731
     7.7775   8.0960   8.1261   8.2721   8.3243   8.7340   8.8510   8.8782
     9.0950   9.1999   9.3305   9.3638   9.4751   9.5046  10.0360  11.6736
    13.7668  14.5247  15.0340  15.5098  15.5397  15.6049  15.8523  16.2492
    16.3020  16.7832  16.8952  16.9221  17.3558  17.9472  18.1347  18.1394
    18.2870  18.4219  18.4564  18.4770  18.5652  19.0250  19.2178  19.5791
    19.6357  19.6378  19.7809  19.8549  19.8750  19.9419

          k = 0.4500 0.0000 0.0000 (  9296 PWs)   bands (ev):

  -101.2846-101.2846-100.9209 -59.2588 -59.2587 -59.2534 -59.2533 -58.9117
   -58.8610 -58.8602 -58.6983 -58.6982 -30.7579 -16.1398 -16.1290 -11.3104
   -11.0907 -10.7842  -7.1457  -7.1210  -6.9929  -6.7027  -6.4991  -6.3757
    -1.5897  -1.3720  -1.1579  -1.0908  -0.8994  -0.8825   4.2686   4.4742
     5.0857   5.6000   5.8072   5.8477   6.0526   6.2958   6.3878   6.4560
     6.4962   6.6538   6.9736   7.0684   7.0978   7.1732   7.4531   7.7696
     7.7816   8.0975   8.1235   8.2786   8.3259   8.7843   8.8698   8.8891
     9.0935   9.1933   9.3435   9.3557   9.4637   9.5435  10.0331  11.6204
    13.7670  14.5906  15.0283  15.5349  15.6369  15.6838  15.8628  16.2747
    16.3157  16.7321  16.9376  16.9863  17.3370  18.0490  18.0578  18.2385
    18.2875  18.4130  18.4355  18.5074  18.5102  19.0113  19.2120  19.5713
    19.6306  19.6740  19.7884  19.8680  19.8699  19.9326

          k = 0.4750 0.0000 0.0000 (  9288 PWs)   bands (ev):

  -101.2846-101.2846-100.9209 -59.2588 -59.2587 -59.2534 -59.2533 -58.9117
   -58.8610 -58.8602 -58.6983 -58.6982 -30.7576 -16.1376 -16.1269 -11.3186
   -11.0864 -10.7839  -7.1540  -7.1197  -6.9837  -6.7070  -6.5029  -6.3746
    -1.5883  -1.3704  -1.1587  -1.0917  -0.8952  -0.8782   4.2513   4.4564
     5.0843   5.5939   5.8288   5.8562   6.0450   6.2750   6.3775   6.4361
     6.4769   6.6857   6.9303   7.0526   7.0902   7.1606   7.4585   7.7676
     7.7842   8.0983   8.1219   8.2826   8.3269   8.8200   8.8785   8.8958
     9.0923   9.1890   9.3508   9.3514   9.4553   9.5685  10.0301  11.5871
    13.7670  14.6319  15.0248  15.5202  15.7358  15.7456  15.8511  16.2568
    16.3594  16.6986  16.9474  17.0611  17.3009  18.0077  18.1218  18.2880
    18.3064  18.4063  18.4164  18.4727  18.5308  18.9975  19.2119  19.5654
    19.6257  19.6992  19.7968  19.8617  19.8785  19.9243

          k = 0.5000 0.0000 0.0000 (  9286 PWs)   bands (ev):

  -101.2846-101.2846-100.9209 -59.2588 -59.2587 -59.2534 -59.2533 -58.9117
   -58.8610 -58.8602 -58.6983 -58.6982 -30.7575 -16.1369 -16.1262 -11.3214
   -11.0849 -10.7837  -7.1569  -7.1197  -6.9801  -6.7084  -6.5043  -6.3742
    -1.5879  -1.3698  -1.1589  -1.0920  -0.8938  -0.8768   4.2455   4.4504
     5.0838   5.5918   5.8365   5.8592   6.0425   6.2675   6.3740   6.4293
     6.4704   6.6994   6.9128   7.0473   7.0876   7.1564   7.4604   7.7669
     7.7852   8.0986   8.1214   8.2839   8.3272   8.8338   8.8800   8.8980
     9.0919   9.1875   9.3491   9.3541   9.4521   9.5772  10.0288  11.5758
    13.7670  14.6460  15.0236  15.5149  15.7670  15.7923  15.8245  16.2506
    16.3747  16.6869  16.9507  17.0945  17.2800  17.9902  18.1467  18.2882
    18.3340  18.4038  18.4053  18.4628  18.5378  18.9913  19.2128  19.5633
    19.6235  19.7085  19.8005  19.8590  19.8813  19.9212

          k = 0.5000 0.0250 0.0000 (  9282 PWs)   bands (ev):

  -101.2846-101.2846-100.9209 -59.2588 -59.2587 -59.2534 -59.2533 -58.9117
   -58.8610 -58.8602 -58.6983 -58.6982 -30.7575 -16.1364 -16.1257 -11.3211
   -11.0839 -10.7873  -7.1550  -7.1179  -6.9756  -6.7072  -6.5032  -6.3767
    -1.5877  -1.3701  -1.1636  -1.0969  -0.9012  -0.8838   4.2399   4.4485
     5.0836   5.5986   5.8278   5.8443   6.0566   6.2389   6.3841   6.3931
     6.4622   6.7018   6.9568   7.0547   7.0855   7.1635   7.4698   7.7693
     7.7938   8.0890   8.1209   8.2676   8.3304   8.8372   8.8812   8.8998
     9.1016   9.1907   9.3518   9.3526   9.4856   9.5763  10.0462  11.5797
    13.7552  14.6515  14.9956  15.5126  15.7764  15.7998  15.8536  16.2499
    16.2710  16.7885  16.8975  17.1448  17.2781  17.9881  18.0685  18.2565
    18.3380  18.4084  18.4561  18.4884  18.5170  19.0183  19.2147  19.5564
    19.6398  19.6825  19.8233  19.8560  19.8825  19.9245

          k = 0.5000 0.0500 0.0000 (  9284 PWs)   bands (ev):

  -101.2846-101.2846-100.9209 -59.2588 -59.2587 -59.2534 -59.2533 -58.9117
   -58.8610 -58.8602 -58.6983 -58.6982 -30.7572 -16.1348 -16.1241 -11.3202
   -11.0806 -10.7979  -7.1493  -7.1126  -6.9621  -6.7039  -6.5000  -6.3841
    -1.5872  -1.3709  -1.1775  -1.1117  -0.9233  -0.9047   4.2229   4.4428
     5.0828   5.6186   5.8019   5.8068   6.0935   6.1734   6.2796   6.4181
     6.4537   6.7070   7.0554   7.0765   7.0789   7.1873   7.4909   7.7759
     7.8196   8.0676   8.1196   8.2285   8.3373   8.8458   8.8848   8.9051
     9.1267   9.2003   9.3453   9.3623   9.5737   9.5797  10.0983  11.5911
    13.7205  14.6677  14.9224  15.5059  15.8046  15.8210  15.9280  16.0918
    16.2500  16.8076  16.9610  17.2222  17.2726  17.9246  17.9820  18.1791
    18.3515  18.4176  18.4602  18.4697  18.6182  19.0851  19.2202  19.5371
    19.6322  19.6841  19.8478  19.8645  19.8855  19.9330

          k = 0.5000 0.0750 0.0000 (  9284 PWs)   bands (ev):

  -101.2846-101.2846-100.9209 -59.2588 -59.2587 -59.2534 -59.2533 -58.9117
   -58.8610 -58.8602 -58.6983 -58.6983 -30.7569 -16.1323 -16.1216 -11.3189
   -11.0753 -10.8152  -7.1399  -7.1040  -6.9400  -6.6983  -6.4948  -6.3962
    -1.5866  -1.3723  -1.2002  -1.1358  -0.9590  -0.9385   4.1943   4.4329
     5.0818   5.6504   5.7382   5.7811   6.0837   6.1448   6.1524   6.4040
     6.4863   6.7110   7.0682   7.1115   7.1545   7.2449   7.5060   7.7860
     7.8621   8.0531   8.1175   8.1826   8.3472   8.8577   8.8906   8.9138
     9.1589   9.2162   9.3349   9.3770   9.5693   9.7208  10.1841  11.6098
    13.6639  14.6942  14.8228  15.4949  15.8334  15.8516  15.9297  16.0177
    16.2604  16.7164  17.1291  17.2636  17.2801  17.7661  17.9724  18.0921
    18.3798  18.3802  18.4329  18.4841  18.7617  19.1680  19.2288  19.5086
    19.5748  19.7463  19.8354  19.8899  19.9080  19.9440

          k = 0.5000 0.1000 0.0000 (  9292 PWs)   bands (ev):

  -101.2846-101.2846-100.9209 -59.2588 -59.2587 -59.2534 -59.2533 -58.9117
   -58.8610 -58.8602 -58.6983 -58.6983 -30.7564 -16.1288 -16.1181 -11.3170
   -11.0680 -10.8384  -7.1271  -7.0920  -6.9102  -6.6907  -6.4878  -6.4128
    -1.5858  -1.3743  -1.2312  -1.1687  -1.0068  -0.9838   4.1539   4.4184
     5.0808   5.6606   5.6921   5.7546   5.9754   6.0186   6.2052   6.3844
     6.5312   6.7096   7.0533   7.1582   7.2179   7.3564   7.4963   7.7979
     7.9203   8.0651   8.1146   8.1427   8.3606   8.8721   8.8984   8.9258
     9.1920   9.2384   9.3211   9.3946   9.5633   9.8943  10.3003  11.6348
    13.5875  14.7103  14.7299  15.4797  15.6972  15.9171  15.9379  16.0803
    16.3077  16.6303  17.2516  17.2718  17.2927  17.6025  17.9603  18.0310
    18.2917  18.4301  18.4537  18.5034  18.9051  19.2395  19.2515  19.4754
    19.5141  19.8160  19.8199  19.8956  19.9517  19.9545

          k = 0.5000 0.1250 0.0000 (  9274 PWs)   bands (ev):

  -101.2846-101.2846-100.9209 -59.2588 -59.2587 -59.2534 -59.2533 -58.9117
   -58.8610 -58.8602 -58.6983 -58.6983 -30.7557 -16.1244 -16.1137 -11.3146
   -11.0588 -10.8668  -7.1109  -7.0770  -6.8736  -6.6813  -6.4790  -6.4334
    -1.5852  -1.3770  -1.2696  -1.2093  -1.0647  -1.0389   4.1014   4.3985
     5.0800   5.5763   5.7291   5.7394   5.8553   5.8866   6.2713   6.3705
     6.5783   6.7002   7.0348   7.2142   7.2723   7.4559   7.4876   7.8094
     7.9930   8.1105   8.1113   8.1174   8.3783   8.8891   8.9079   8.9407
     9.2231   9.2664   9.3047   9.4136   9.5557  10.0888  10.4412  11.6655
    13.4939  14.5917  14.7729  15.4606  15.5275  16.0008  16.0071  16.0908
    16.4065  16.5510  17.2369  17.2444  17.3771  17.4370  17.9469  18.0183
    18.2077  18.4796  18.5084  18.5275  19.0446  19.2499  19.3284  19.4433
    19.4522  19.8027  19.8854  19.9027  19.9622  19.9964

          k = 0.5000 0.1500 0.0000 (  9278 PWs)   bands (ev):

  -101.2846-101.2846-100.9209 -59.2588 -59.2587 -59.2534 -59.2533 -58.9117
   -58.8610 -58.8602 -58.6983 -58.6983 -30.7550 -16.1193 -16.1086 -11.3119
   -11.0480 -10.8995  -7.0917  -7.0591  -6.8314  -6.6703  -6.4687  -6.4577
    -1.5850  -1.3806  -1.3144  -1.2568  -1.1305  -1.1014   4.0372   4.3722
     5.0797   5.4912   5.7051   5.7308   5.7365   5.8132   6.3406   6.3628
     6.6259   6.6820   7.0130   7.2773   7.3314   7.3931   7.6203   7.8184
     8.0787   8.1078   8.1103   8.1813   8.4006   8.9092   8.9187   8.9582
     9.2517   9.2865   9.2999   9.4332   9.5466  10.2955  10.6000  11.7009
    13.3867  14.4700  14.8196  15.3705  15.4380  16.0690  16.0959  16.1001
    16.4801  16.5295  17.1467  17.2200  17.2714  17.4415  17.9345  18.0470
    18.1387  18.5103  18.5559  18.6127  19.1751  19.2562  19.3932  19.3960
    19.4204  19.7857  19.9111  19.9485  19.9660  20.0443

          k = 0.5000 0.1750 0.0000 (  9276 PWs)   bands (ev):

  -101.2846-101.2846-100.9209 -59.2588 -59.2587 -59.2533 -59.2533 -58.9117
   -58.8610 -58.8602 -58.6983 -58.6983 -30.7542 -16.1135 -16.1029 -11.3088
   -11.0358 -10.9354  -7.0699  -7.0388  -6.7847  -6.6580  -6.4850  -6.4572
    -1.5856  -1.3859  -1.3644  -1.3097  -1.2016  -1.1683   3.9618   4.3385
     5.0799   5.4101   5.6083   5.6178   5.6826   5.8634   6.3607   6.4110
     6.6559   6.6728   6.9887   7.3190   7.3455   7.3968   7.7492   7.8244
     8.1050   8.1203   8.1752   8.2668   8.4283   8.9301   8.9324   8.9781
     9.2676   9.2778   9.3385   9.4540   9.5362  10.5077  10.7700  11.7401
    13.2695  14.3461  14.8608  15.2374  15.4126  16.0294  16.2017  16.2036
    16.4255  16.6557  17.0268  17.1066  17.2019  17.4711  17.9281  18.0913
    18.0947  18.5450  18.5880  18.7282  19.2584  19.2625  19.3697  19.4155
    19.4539  19.7708  19.9207  19.9659  20.0004  20.0981

          k = 0.5000 0.2000 0.0000 (  9298 PWs)   bands (ev):

  -101.2846-101.2846-100.9209 -59.2588 -59.2587 -59.2533 -59.2533 -58.9117
   -58.8610 -58.8602 -58.6983 -58.6983 -30.7533 -16.1073 -16.0966 -11.3055
   -11.0224 -10.9735  -7.0458  -7.0164  -6.7349  -6.6447  -6.5148  -6.4448
    -1.5875  -1.4184  -1.3951  -1.3668  -1.2754  -1.2354   3.8769   4.2964
     5.0804   5.3363   5.4932   5.4977   5.6618   5.9219   6.3635   6.4805
     6.6235   6.7180   6.9626   7.2413   7.4165   7.4676   7.8283   7.8702
     8.1050   8.1429   8.2806   8.3593   8.4623   8.9412   8.9587   8.9999
     9.2488   9.3011   9.3811   9.4768   9.5245  10.7201  10.9454  11.7823
    13.1462  14.2206  14.8706  15.1536  15.3848  15.9765  16.2447  16.3234
    16.4470  16.7755  16.9094  16.9445  17.1825  17.4773  17.9339  18.0687
    18.1431  18.5830  18.6230  18.8252  19.2320  19.2738  19.4297  19.4543
    19.5031  19.7601  19.9315  19.9628  20.0351  20.1618

          k = 0.5000 0.2250 0.0000 (  9306 PWs)   bands (ev):

  -101.2846-101.2846-100.9209 -59.2588 -59.2587 -59.2533 -59.2533 -58.9117
   -58.8610 -58.8602 -58.6983 -58.6983 -30.7523 -16.1007 -16.0900 -11.3020
   -11.0127 -11.0082  -7.0199  -6.9923  -6.6833  -6.6308  -6.5462  -6.4318
    -1.5918  -1.4751  -1.4266  -1.4146  -1.3487  -1.2940   3.7845   4.2453
     5.0807   5.2720   5.3841   5.3895   5.6425   5.9802   6.3704   6.5471
     6.5870   6.7604   6.9360   7.1645   7.4885   7.5422   7.8318   7.9735
     8.1166   8.1724   8.3923   8.4539   8.5034   8.9511   8.9879   9.0234
     9.2313   9.3208   9.4268   9.5029   9.5120  10.9282  11.1212  11.8270
    13.0208  14.0935  14.8169  15.1493  15.3557  15.9126  16.1820  16.4596
    16.5771  16.7859  16.8137  16.8844  17.1629  17.4722  17.9500  18.0789
    18.1814  18.6236  18.6598  18.8666  19.1723  19.3333  19.4579  19.5455
    19.5555  19.7546  19.9431  19.9575  20.0443  20.1691

          k = 0.5000 0.2500 0.0000 (  9318 PWs)   bands (ev):

  -101.2846-101.2846-100.9209 -59.2588 -59.2587 -59.2533 -59.2533 -58.9117
   -58.8610 -58.8602 -58.6983 -58.6983 -30.7513 -16.0939 -16.0833 -11.2984
   -11.0520 -10.9934  -6.9927  -6.9670  -6.6313  -6.6167  -6.5786  -6.4185
    -1.6005  -1.5330  -1.4877  -1.4550  -1.4175  -1.3314   3.6876   4.1855
     5.0795   5.2190   5.2783   5.3000   5.6247   6.0360   6.3807   6.5482
     6.6084   6.7987   6.9104   7.0915   7.5596   7.6188   7.8362   8.0312
     8.1670   8.2035   8.5079   8.5477   8.5520   8.9586   9.0193   9.0482
     9.2161   9.3363   9.4725   9.5006   9.5327  11.1280  11.2934  11.8735
    12.8968  13.9652  14.7241  15.1975  15.3261  15.8400  16.0796  16.6073
    16.6322  16.7177  16.7782  16.9816  17.1433  17.4669  17.9616  18.1381
    18.2042  18.6659  18.6970  18.8470  19.1106  19.4324  19.5008  19.5834
    19.6443  19.7544  19.9507  19.9554  20.0198  20.1671

          k = 0.5000 0.2750 0.0000 (  9320 PWs)   bands (ev):

  -101.2846-101.2846-100.9209 -59.2588 -59.2588 -59.2533 -59.2533 -58.9117
   -58.8610 -58.8602 -58.6983 -58.6983 -30.7504 -16.0871 -16.0765 -11.2948
   -11.0904 -10.9785  -6.9649  -6.9412  -6.6111  -6.6028  -6.5800  -6.4054
    -1.6180  -1.5907  -1.5485  -1.5140  -1.4756  -1.3483   3.5890   4.1185
     5.0741   5.1796   5.1813   5.2256   5.6085   6.0881   6.3937   6.5091
     6.6615   6.8312   6.8885   7.0249   7.6273   7.6951   7.8429   8.0445
     8.2326   8.2547   8.6078   8.6248   8.6389   8.9626   9.0519   9.0739
     9.2039   9.3476   9.4799   9.5273   9.5658  11.3162  11.4587  11.9215
    12.7779  13.8364  14.6228  15.2649  15.2971  15.7617  15.9579  16.4845
    16.7055  16.7612  16.9467  17.0694  17.1244  17.4722  17.9648  18.2110
    18.2461  18.7094  18.7327  18.7903  19.0517  19.5085  19.5902  19.6188
    19.7169  19.7587  19.9428  19.9623  19.9678  20.1623

          k = 0.5000 0.3000 0.0000 (  9312 PWs)   bands (ev):

  -101.2846-101.2846-100.9209 -59.2588 -59.2588 -59.2533 -59.2533 -58.9117
   -58.8610 -58.8602 -58.6983 -58.6983 -30.7494 -16.0804 -16.0698 -11.2913
   -11.1272 -10.9637  -6.9371  -6.9154  -6.6431  -6.5893  -6.5308  -6.3928
    -1.6501  -1.6468  -1.6077  -1.5787  -1.5157  -1.3557   3.4921   4.0469
     5.0615   5.0935   5.1561   5.1657   5.5938   6.1355   6.4090   6.4711
     6.7015   6.8534   6.8751   6.9695   7.6882   7.7692   7.8545   8.0442
     8.2575   8.3483   8.6693   8.7259   8.7402   8.9626   9.0844   9.1003
     9.1953   9.3548   9.4652   9.5746   9.6013  11.4901  11.6141  11.9706
    12.6673  13.7080  14.5227  15.2699  15.3391  15.6813  15.8275  16.3442
    16.7013  16.9113  17.1065  17.1448  17.1513  17.5001  17.9649  18.2060
    18.3908  18.7153  18.7536  18.7635  18.9992  19.5540  19.6528  19.7107
    19.7661  19.7740  19.8822  19.9339  19.9801  20.1538

          k = 0.5000 0.3250 0.0000 (  9306 PWs)   bands (ev):

  -101.2846-101.2846-100.9209 -59.2588 -59.2588 -59.2533 -59.2533 -58.9117
   -58.8610 -58.8602 -58.6984 -58.6983 -30.7485 -16.0741 -16.0635 -11.2880
   -11.1614 -10.9496  -6.9099  -6.8902  -6.6735  -6.5768  -6.4846  -6.3809
    -1.7000  -1.6950  -1.6637  -1.6419  -1.5379  -1.3592   3.3996   3.9739
     5.0155   5.0423   5.1188   5.1465   5.5807   6.1777   6.4260   6.4353
     6.7220   6.8503   6.8767   6.9404   7.7365   7.8390   7.8758   8.0405
     8.2777   8.4375   8.7339   8.8076   8.8514   8.9588   9.1152   9.1271
     9.1899   9.3583   9.4487   9.6208   9.6378  11.6473  11.7571  12.0204
    12.5681  13.5817  14.4264  15.2455  15.4152  15.6026  15.6971  16.2125
    16.7184  17.0431  17.0900  17.2303  17.3406  17.5631  17.9640  18.2004
    18.5601  18.6334  18.7830  18.8002  18.9598  19.5946  19.6851  19.7750
    19.7912  19.8185  19.8221  19.9249  19.9916  20.1407

          k = 0.5000 0.3500 0.0000 (  9312 PWs)   bands (ev):

  -101.2846-101.2846-100.9209 -59.2588 -59.2588 -59.2533 -59.2533 -58.9117
   -58.8610 -58.8602 -58.6984 -58.6983 -30.7477 -16.0682 -16.0576 -11.2849
   -11.1925 -10.9363  -6.8842  -6.8665  -6.7018  -6.5656  -6.4425  -6.3702
    -1.7490  -1.7436  -1.7154  -1.7004  -1.5500  -1.3611   3.3143   3.9030
     4.9475   5.0215   5.0830   5.1449   5.5691   6.2145   6.4027   6.4442
     6.7228   6.8164   6.8938   6.9434   7.7672   7.9028   7.9105   8.0358
     8.2931   8.5190   8.7990   8.8830   8.9524   8.9556   9.1426   9.1540
     9.1866   9.3583   9.4313   9.6636   9.6735  11.7861  11.8857  12.0701
    12.4826  13.4594  14.3350  15.2251  15.4902  15.5288  15.5733  16.0909
    16.7525  17.0753  17.1457  17.3075  17.5085  17.6634  17.9626  18.2181
    18.5573  18.7310  18.7819  18.8636  18.9429  19.6324  19.6983  19.7141
    19.7846  19.8530  19.8891  19.9394  20.0013  20.1223

          k = 0.5000 0.3750 0.0000 (  9328 PWs)   bands (ev):

  -101.2846-101.2846-100.9209 -59.2588 -59.2588 -59.2533 -59.2533 -58.9117
   -58.8610 -58.8602 -58.6984 -58.6983 -30.7469 -16.0629 -16.0524 -11.2822
   -11.2198 -10.9244  -6.8606  -6.8448  -6.7271  -6.5558  -6.4054  -6.3607
    -1.7926  -1.7895  -1.7614  -1.7523  -1.5576  -1.3619   3.2384   3.8376
     4.8898   5.0026   5.0561   5.1467   5.5593   6.2455   6.3740   6.4632
     6.7127   6.7747   6.9180   6.9556   7.7833   7.9544   7.9588   8.0316
     8.3042   8.5909   8.8619   8.9451   8.9514   9.0500   9.1650   9.1808
     9.1842   9.3553   9.4129   9.7019   9.7069  11.9054  11.9980  12.1184
    12.4127  13.3440  14.2500  15.2093  15.4609  15.4627  15.5616  15.9812
    16.7999  17.0626  17.2240  17.3825  17.6113  17.7746  17.9604  18.2949
    18.5085  18.7608  18.8301  18.9481  19.0082  19.6123  19.6666  19.7374
    19.7943  19.8775  19.8798  20.0044  20.0070  20.0995

          k = 0.5000 0.4000 0.0000 (  9332 PWs)   bands (ev):

  -101.2846-101.2846-100.9209 -59.2588 -59.2588 -59.2533 -59.2533 -58.9117
   -58.8610 -58.8602 -58.6984 -58.6983 -30.7463 -16.0584 -16.0479 -11.2798
   -11.2428 -10.9141  -6.8399  -6.8258  -6.7488  -6.5477  -6.3740  -6.3528
    -1.8299  -1.8292  -1.8006  -1.7963  -1.5629  -1.3623   3.1738   3.7803
     4.8425   4.9868   5.0363   5.1498   5.5511   6.2708   6.3497   6.4825
     6.6994   6.7351   6.9419   6.9675   7.7915   7.9995   8.0035   8.0303
     8.3114   8.6513   8.9203   8.9392   9.0117   9.1319   9.1809   9.1814
     9.2073   9.3494   9.3938   9.7344   9.7366  12.0044  12.0922  12.1634
    12.3587  13.2390  14.1735  15.1987  15.3639  15.4063  15.6267  15.8853
    16.8567  17.0520  17.2919  17.4530  17.6340  17.8450  17.9570  18.4425
    18.5229  18.7320  18.8736  18.9632  19.1985  19.5510  19.6958  19.7517
    19.8044  19.8472  19.9005  20.0029  20.0543  20.0774

          k = 0.5000 0.4250 0.0000 (  9344 PWs)   bands (ev):

  -101.2846-101.2846-100.9209 -59.2588 -59.2588 -59.2533 -59.2533 -58.9117
   -58.8610 -58.8602 -58.6984 -58.6983 -30.7458 -16.0548 -16.0443 -11.2780
   -11.2611 -10.9058  -6.8229  -6.8103  -6.7663  -6.5414  -6.3489  -6.3466
    -1.8611  -1.8598  -1.8321  -1.8314  -1.5667  -1.3623   3.1220   3.7336
     4.8057   4.9746   5.0224   5.1529   5.5447   6.2904   6.3304   6.5016
     6.6869   6.7001   6.9621   6.9770   7.7958   8.0181   8.0400   8.0503
     8.3153   8.6983   8.9365   8.9718   9.0629   9.1779   9.1896   9.1986
     9.2335   9.3413   9.3739   9.7603   9.7611  12.0833  12.1672  12.2029
    12.3197  13.1488  14.1085  15.1928  15.2853  15.3611  15.6822  15.8056
    16.9184  17.0436  17.3600  17.5160  17.6050  17.8399  17.9525  18.6187
    18.6273  18.7047  18.9032  18.9795  19.3187  19.5848  19.7172  19.7531
    19.8029  19.8141  19.9159  19.9816  20.0660  20.0833

          k = 0.5000 0.4500 0.0000 (  9344 PWs)   bands (ev):

  -101.2846-101.2846-100.9209 -59.2588 -59.2588 -59.2533 -59.2533 -58.9117
   -58.8610 -58.8602 -58.6984 -58.6983 -30.7454 -16.0521 -16.0417 -11.2766
   -11.2744 -10.8997  -6.8102  -6.7988  -6.7792  -6.5369  -6.3421  -6.3307
    -1.8845  -1.8817  -1.8569  -1.8552  -1.5693  -1.3623   3.0841   3.6991
     4.7793   4.9659   5.0131   5.1555   5.5401   6.3044   6.3164   6.5193
     6.6710   6.6771   6.9772   6.9837   7.7981   8.0171   8.0720   8.0765
     8.3169   8.7304   8.9377   9.0139   9.1031   9.1738   9.1918   9.2471
     9.2596   9.3322   9.3534   9.7791   9.7795  12.1423  12.2215  12.2341
    12.2927  13.0785  14.0584  15.1908  15.2273  15.3282  15.7250  15.7451
    16.9781  17.0376  17.4336  17.5566  17.5669  17.7794  17.9472  18.6833
    18.7593  18.8084  18.9247  18.9927  19.3154  19.7128  19.7378  19.7513
    19.7615  19.8220  19.9267  19.9516  20.0641  20.0963

          k = 0.5000 0.4750 0.0000 (  9352 PWs)   bands (ev):

  -101.2846-101.2846-100.9209 -59.2588 -59.2588 -59.2533 -59.2533 -58.9117
   -58.8610 -58.8602 -58.6984 -58.6983 -30.7452 -16.0505 -16.0401 -11.2825
   -11.2757 -10.8959  -6.8023  -6.7917  -6.7871  -6.5342  -6.3394  -6.3196
    -1.8987  -1.8951  -1.8724  -1.8693  -1.5709  -1.3622   3.0611   3.6779
     4.7635   4.9607   5.0078   5.1572   5.5373   6.3079   6.3127   6.5335
     6.6502   6.6709   6.9864   6.9877   7.7992   8.0158   8.0927   8.0932
     8.3171   8.7483   8.9410   9.0429   9.1298   9.1704   9.1898   9.2770
     9.2835   9.3244   9.3330   9.7905   9.7908  12.1817  12.2541  12.2545
    12.2746  13.0335  14.0266  15.1909  15.1918  15.3083  15.7069  15.7521
    17.0249  17.0340  17.5130  17.5143  17.6006  17.6952  17.9427  18.6698
    18.8873  18.9383  18.9474  19.0012  19.2906  19.6585  19.7099  19.7599
    19.8268  19.9208  19.9298  19.9331  20.0650  20.1003

          k = 0.5000 0.5000 0.0000 (  9360 PWs)   bands (ev):

  -101.2846-101.2846-100.9209 -59.2588 -59.2588 -59.2533 -59.2533 -58.9117
   -58.8610 -58.8602 -58.6984 -58.6983 -30.7451 -16.0500 -16.0395 -11.2852
   -11.2755 -10.8947  -6.7997  -6.7897  -6.7893  -6.5333  -6.3385  -6.3159
    -1.9034  -1.8996  -1.8776  -1.8740  -1.5715  -1.3622   3.0534   3.6707
     4.7583   4.9590   5.0061   5.1578   5.5364   6.3050   6.3155   6.5393
     6.6421   6.6688   6.9890   6.9895   7.7996   8.0153   8.0988   8.0998
     8.3170   8.7538   8.9427   9.0535   9.1393   9.1690   9.1882   9.2917
     9.2931   9.3200   9.3212   9.7943   9.7947  12.1969  12.2611  12.2655
    12.2669  13.0180  14.0157  15.1799  15.1911  15.3016  15.6938  15.7614
    17.0328  17.0435  17.4951  17.5887  17.6126  17.6181  17.9409  18.6652
    18.9417  18.9430  19.0019  19.0041  19.2803  19.6280  19.6939  19.7621
    19.8284  19.9226  19.9352  19.9958  20.0655  20.1010

          k = 0.4750 0.5000 0.0000 (  9352 PWs)   bands (ev):

  -101.2846-101.2846-100.9209 -59.2588 -59.2588 -59.2533 -59.2533 -58.9117
   -58.8610 -58.8602 -58.6984 -58.6983 -30.7452 -16.0505 -16.0401 -11.2855
   -11.2728 -10.8959  -6.7971  -6.7924  -6.7916  -6.5342  -6.3421  -6.3168
    -1.8989  -1.8949  -1.8729  -1.8689  -1.5709  -1.3622   3.0610   3.6777
     4.7635   4.9607   5.0079   5.1573   5.5374   6.3024   6.3183   6.5343
     6.6442   6.6761   6.9859   6.9882   7.7992   8.0158   8.0917   8.0942
     8.3171   8.7478   8.9417   9.0421   9.1293   9.1715   9.1891   9.2784
     9.2830   9.3236   9.3336   9.7904   9.7909  12.1838  12.2547  12.2599
    12.2670  13.0334  14.0266  15.1795  15.2031  15.3083  15.7070  15.7519
    17.0144  17.0447  17.5122  17.5229  17.5773  17.7104  17.9427  18.6699
    18.8886  18.9370  18.9505  18.9989  19.2906  19.6585  19.7104  19.7598
    19.8267  19.9205  19.9222  19.9415  20.0650  20.1003

          k = 0.4500 0.5000 0.0000 (  9344 PWs)   bands (ev):

  -101.2846-101.2846-100.9209 -59.2588 -59.2588 -59.2533 -59.2533 -58.9117
   -58.8610 -58.8602 -58.6984 -58.6983 -30.7454 -16.0521 -16.0417 -11.2864
   -11.2649 -10.8996  -6.8002  -6.7986  -6.7894  -6.5369  -6.3528  -6.3196
    -1.8855  -1.8808  -1.8588  -1.8534  -1.5691  -1.3622   3.0838   3.6983
     4.7790   4.9658   5.0135   5.1556   5.5402   6.2944   6.3266   6.5216
     6.6503   6.6957   6.9768   6.9841   7.7980   8.0171   8.0711   8.0775
     8.3169   8.7289   8.9403   9.0119   9.1015   9.1751   9.1915   9.2486
     9.2604   9.3324   9.3533   9.7791   9.7795  12.1477  12.2222  12.2396
    12.2826  13.0780  14.0583  15.1794  15.2388  15.3282  15.7241  15.7454
    16.9677  17.0482  17.4373  17.5452  17.5537  17.7990  17.9471  18.6835
    18.7610  18.8136  18.9236  18.9902  19.3158  19.7128  19.7399  19.7533
    19.7611  19.8217  19.9141  19.9609  20.0641  20.0963

          k = 0.4250 0.5000 0.0000 (  9344 PWs)   bands (ev):

  -101.2846-101.2846-100.9209 -59.2588 -59.2588 -59.2533 -59.2533 -58.9117
[...]
    12.9979  13.0990  13.3343  14.3745  14.9598  14.9964  15.1676  15.2487
    15.7558  16.0064  16.6046  16.6962  17.1657  17.4004  17.4855  17.5972
    18.2754  18.3485  18.4185  18.6280  19.0259  19.0816  19.1939  19.5378
    19.5495  19.6184  19.6785  19.8860  19.8907  20.0896

          k = 0.0750 0.0750 0.0000 (  9261 PWs)   bands (ev):

  -101.2846-101.2845-100.9209 -59.2588 -59.2587 -59.2533 -59.2532 -58.9117
   -58.8610 -58.8602 -58.6983 -58.6981 -30.7688 -16.2380 -16.2256 -11.2789
   -10.8395 -10.8321  -7.7038  -6.8894  -6.7501  -6.5251  -6.4767  -6.3102
    -1.6418  -1.3841  -1.1586  -1.1429  -1.0525  -1.0317   5.0035   5.2656
     5.3394   5.4468   5.6020   5.6161   6.4212   6.5612   6.8351   6.9441
     7.2148   7.3321   7.5331   7.5764   7.5810   7.7681   7.8177   7.9387
     8.0327   8.0333   8.1657   8.1946   8.2081   8.2819   8.4188   8.4771
     8.5233   8.7851   9.1866   9.2721   9.3827   9.6054   9.7251  12.3396
    13.1076  13.1201  13.4497  14.4255  14.8536  15.0845  15.1964  15.2612
    15.8829  16.0383  16.5335  16.6795  17.2265  17.4641  17.5615  17.8014
    18.2048  18.3183  18.3483  18.6300  18.9381  19.1610  19.2375  19.4779
    19.5540  19.5868  19.6858  19.8727  19.8810  20.0487

          k = 0.1000 0.1000 0.0000 (  9267 PWs)   bands (ev):

  -101.2846-101.2845-100.9209 -59.2588 -59.2587 -59.2533 -59.2532 -58.9117
   -58.8610 -58.8602 -58.6983 -58.6981 -30.7677 -16.2291 -16.2168 -11.2624
   -10.8652 -10.8535  -7.6446  -6.8914  -6.7728  -6.5141  -6.4989  -6.3331
    -1.6366  -1.3853  -1.1948  -1.1772  -1.0183  -0.9924   4.9694   5.2240
     5.3488   5.4009   5.5670   5.6241   6.3947   6.5640   6.7604   6.9394
     7.0566   7.1804   7.4742   7.5432   7.5737   7.7521   7.8039   7.9482
     7.9740   8.0785   8.1687   8.1884   8.2413   8.3288   8.4419   8.4851
     8.4961   8.7377   9.2263   9.4472   9.5338   9.5402   9.7538  12.4081
    13.1664  13.2556  13.6091  14.4872  14.6909  15.1757  15.2432  15.3407
    16.0208  16.0697  16.4759  16.6524  17.2746  17.5304  17.6610  18.0423
    18.1302  18.2557  18.2960  18.6576  18.8760  19.2472  19.2812  19.3808
    19.5286  19.5905  19.6843  19.8558  19.8724  20.0019

          k = 0.1250 0.1250 0.0000 (  9265 PWs)   bands (ev):

  -101.2846-101.2845-100.9209 -59.2588 -59.2587 -59.2533 -59.2532 -58.9117
   -58.8610 -58.8602 -58.6983 -58.6981 -30.7664 -16.2182 -16.2060 -11.2419
   -10.8961 -10.8798  -7.5720  -6.8942  -6.7977  -6.5227  -6.5008  -6.3614
    -1.6296  -1.3856  -1.2391  -1.2195  -0.9861  -0.9544   4.9161   5.1711
     5.3404   5.3549   5.5242   5.6503   6.3600   6.5650   6.6829   6.8868
     6.9345   6.9983   7.3850   7.5249   7.5555   7.7636   7.7861   7.8723
     7.9629   8.1019   8.1523   8.1816   8.2770   8.4274   8.4858   8.5076
     8.5216   8.7106   9.2620   9.4760   9.6247   9.6339   9.8552  12.4536
    13.2582  13.4180  13.8104  14.5353  14.5512  15.1295  15.4239  15.4568
    16.0939  16.1495  16.4334  16.6123  17.2976  17.6036  17.7661  18.0512
    18.1736  18.1938  18.3950  18.7153  18.8434  19.2655  19.3198  19.3325
    19.4783  19.6156  19.6836  19.8378  19.8726  19.9536

          k = 0.1500 0.1500 0.0000 (  9263 PWs)   bands (ev):

  -101.2846-101.2845-100.9209 -59.2588 -59.2587 -59.2533 -59.2532 -58.9117
   -58.8610 -58.8602 -58.6983 -58.6982 -30.7649 -16.2054 -16.1935 -11.2178
   -10.9308 -10.9102  -7.4882  -6.8976  -6.8223  -6.5458  -6.4857  -6.3940
    -1.6209  -1.3852  -1.2903  -1.2685  -0.9624  -0.9247   4.8352   5.1062
     5.2829   5.3549   5.4759   5.6871   6.3181   6.5625   6.6101   6.7143
     6.7917   6.9302   7.2910   7.5109   7.5215   7.7710   7.7828   7.7910
     7.9807   8.1272   8.1295   8.1712   8.3046   8.5193   8.5367   8.5646
     8.5945   8.7033   9.2883   9.4261   9.6517   9.8300  10.0274  12.4691
    13.3949  13.5557  14.0509  14.4391  14.5982  15.0694  15.5934  15.6136
    16.1112  16.2550  16.3978  16.5573  17.2951  17.6733  17.8346  17.9843
    18.1559  18.2010  18.6442  18.7964  18.8236  19.1542  19.3506  19.4118
    19.4383  19.6340  19.6857  19.8219  19.8918  19.9138

          k = 0.1750 0.1750 0.0000 (  9291 PWs)   bands (ev):

  -101.2846-101.2846-100.9209 -59.2588 -59.2588 -59.2533 -59.2532 -58.9117
   -58.8610 -58.8602 -58.6983 -58.6982 -30.7633 -16.1913 -16.1795 -11.1908
   -10.9678 -10.9437  -7.3961  -6.9013  -6.8437  -6.5660  -6.4693  -6.4302
    -1.6113  -1.3840  -1.3467  -1.3230  -0.9534  -0.9098   4.7220   5.0278
     5.2392   5.3468   5.4240   5.7306   6.2699   6.5178   6.5525   6.5716
     6.5808   6.9273   7.2121   7.4574   7.4840   7.7509   7.7659   7.8202
     8.0020   8.1105   8.1594   8.1733   8.3222   8.5826   8.6134   8.6459
     8.6868   8.7137   9.2952   9.4042   9.6615  10.0337  10.2230  12.4607
    13.5667  13.5944  14.3273  14.4757  14.6096  15.0100  15.7404  15.7980
    16.1292  16.3327  16.3561  16.4874  17.2743  17.7153  17.8468  17.9235
    18.2155  18.2375  18.7807  18.8583  18.8868  19.0893  19.3770  19.4359
    19.4812  19.6379  19.6812  19.8120  19.9021  19.9066

          k = 0.2000 0.2000 0.0000 (  9303 PWs)   bands (ev):

  -101.2846-101.2846-100.9209 -59.2588 -59.2588 -59.2533 -59.2532 -58.9117
   -58.8610 -58.8602 -58.6983 -58.6982 -30.7614 -16.1762 -16.1646 -11.1614
   -11.0059 -10.9795  -7.2989  -6.9047  -6.8589  -6.5817  -6.4688  -6.4522
    -1.6015  -1.4067  -1.3831  -1.3806  -0.9641  -0.9155   4.5803   4.9345
     5.2100   5.3298   5.3700   5.7783   6.2039   6.3411   6.3946   6.5277
     6.5420   6.9265   7.1605   7.3850   7.4098   7.7724   7.7972   7.8409
     8.0284   8.1146   8.1498   8.2331   8.3355   8.6569   8.6629   8.7428
     8.7506   8.7767   9.2840   9.4119   9.6684  10.2435  10.4264  12.4366
    13.5128  13.7611  14.5590  14.6355  14.6684  14.9706  15.8852  15.9566
    16.1618  16.2981  16.3899  16.4043  17.2449  17.7132  17.8494  17.8660
    18.2769  18.3406  18.7037  18.9644  18.9719  19.0973  19.4069  19.4852
    19.5379  19.6334  19.6725  19.8123  19.8753  19.9480

          k = 0.2250 0.2250 0.0000 (  9291 PWs)   bands (ev):

  -101.2846-101.2846-100.9209 -59.2588 -59.2588 -59.2533 -59.2532 -58.9117
   -58.8610 -58.8602 -58.6983 -58.6982 -30.7595 -16.1605 -16.1491 -11.1305
   -11.0440 -11.0165  -7.2011  -6.9070  -6.8643  -6.5921  -6.5089  -6.4350
    -1.5923  -1.4685  -1.4419  -1.3805  -0.9976  -0.9454   4.4182   4.8253
     5.1903   5.3045   5.3156   5.8224   6.0945   6.1251   6.3390   6.4963
     6.5228   6.9279   7.1424   7.2961   7.3273   7.7902   7.8480   7.8953
     8.0613   8.1201   8.1686   8.3053   8.3490   8.6917   8.7489   8.7893
     8.8485   8.8606   9.2737   9.4313   9.6760  10.4578  10.6329  12.4030
    13.3701  13.9674  14.4486  14.9494  14.9561  14.9698  16.0029  16.0601
    16.1918  16.2566  16.3115  16.4520  17.2157  17.6828  17.8080  17.8666
    18.2841  18.5012  18.6279  19.0003  19.0085  19.1514  19.4526  19.5250
    19.5808  19.6396  19.6885  19.8255  19.8618  20.0199

          k = 0.2500 0.2500 0.0000 (  9305 PWs)   bands (ev):

  -101.2846-101.2846-100.9209 -59.2588 -59.2588 -59.2533 -59.2532 -58.9117
   -58.8610 -58.8602 -58.6983 -58.6982 -30.7576 -16.1447 -16.1335 -11.0987
   -11.0811 -11.0538  -7.1094  -6.9068  -6.8542  -6.5973  -6.5493  -6.4181
    -1.5846  -1.5307  -1.5031  -1.3788  -1.0545  -1.0006   4.2443   4.7007
     5.1756   5.2620   5.2726   5.7992   5.9678   5.9917   6.3426   6.4776
     6.4991   6.9317   7.1594   7.1993   7.2482   7.8174   7.8455   8.0254
     8.1011   8.1089   8.2295   8.3645   8.3863   8.7223   8.8345   8.8452
     8.9365   8.9381   9.2747   9.4523   9.6854  10.6746  10.8397  12.3634
    13.2096  14.1744  14.3044  14.9264  15.2932  15.3209  16.0575  16.0668
    16.1535  16.2158  16.3298  16.5585  17.1937  17.6502  17.7469  17.8957
    18.2474  18.5604  18.6934  18.9945  19.0072  19.2275  19.5090  19.5191
    19.6125  19.6515  19.7449  19.8503  19.8905  20.0763

          k = 0.2750 0.2750 0.0000 (  9295 PWs)   bands (ev):

  -101.2846-101.2846-100.9209 -59.2588 -59.2588 -59.2533 -59.2533 -58.9117
   -58.8610 -58.8602 -58.6983 -58.6982 -30.7556 -16.1291 -16.1181 -11.1165
   -11.0906 -11.0668  -7.0342  -6.9034  -6.8204  -6.5980  -6.5887  -6.4020
    -1.5918  -1.5788  -1.5635  -1.3774  -1.1330  -1.0795   4.0658   4.5635
     5.1632   5.2104   5.2362   5.6367   5.8538   6.0167   6.3740   6.4723
     6.4749   6.9373   7.1046   7.1713   7.2098   7.8395   7.8508   8.0951
     8.1468   8.1770   8.3109   8.3836   8.4731   8.7530   8.9042   8.9150
     9.0036   9.0183   9.2898   9.4715   9.6970  10.8919  11.0447  12.3199
    13.0494  14.1328  14.3854  14.8922  15.6566  15.6591  15.9496  16.0410
    16.1410  16.2045  16.3837  16.7196  17.1849  17.6344  17.6832  17.9244
    18.2098  18.4972  18.8752  18.9643  18.9932  19.3125  19.4669  19.5987
    19.6382  19.6563  19.8302  19.8817  19.9581  20.0768

          k = 0.3000 0.3000 0.0000 (  9297 PWs)   bands (ev):

  -101.2846-101.2846-100.9209 -59.2588 -59.2588 -59.2533 -59.2533 -58.9117
   -58.8610 -58.8602 -58.6983 -58.6982 -30.7537 -16.1142 -16.1033 -11.1494
   -11.1258 -11.0357  -6.9816  -6.8960  -6.7591  -6.6276  -6.5937  -6.3870
    -1.6501  -1.6217  -1.5762  -1.3772  -1.2287  -1.1772   3.8885   4.4185
     5.1523   5.1619   5.1976   5.4572   5.7609   6.0778   6.4042   6.4443
     6.5035   6.9443   7.0159   7.0976   7.2899   7.8338   7.8875   8.0813
     8.1948   8.3420   8.4047   8.4087   8.5635   8.7844   8.9637   8.9871
     9.0617   9.0888   9.3188   9.4880   9.7105  11.1066  11.2456  12.2749
    12.8976  13.9655  14.5538  14.8651  15.8095  15.8283  15.9760  16.0319
    16.2430  16.2713  16.3882  16.9091  17.1957  17.6121  17.6517  17.9422
    18.1945  18.4611  18.8894  18.9154  19.0890  19.3971  19.4412  19.6623
    19.6675  19.6801  19.9105  19.9148  20.0532  20.0538

          k = 0.3250 0.3250 0.0000 (  9293 PWs)   bands (ev):

  -101.2846-101.2846-100.9209 -59.2588 -59.2588 -59.2533 -59.2533 -58.9117
   -58.8610 -58.8602 -58.6984 -58.6982 -30.7519 -16.1003 -16.0895 -11.1793
   -11.1588 -11.0061  -6.9446  -6.8846  -6.6807  -6.6634  -6.5869  -6.3732
    -1.7046  -1.6763  -1.5777  -1.3824  -1.3348  -1.2838   3.7176   4.2719
     5.1170   5.1429   5.1591   5.2948   5.6895   6.1395   6.4165   6.4186
     6.5676   6.9351   6.9521   7.0288   7.3942   7.8301   7.9252   8.0680
     8.2391   8.4431   8.5061   8.5131   8.6555   8.8158   9.0218   9.0485
     9.1111   9.1495   9.3589   9.5027   9.7254  11.3155  11.4401  12.2314
    12.7586  13.8003  14.6026  14.9295  15.6686  15.7669  15.8859  16.3225
    16.3681  16.3981  16.5695  17.0960  17.2364  17.5592  17.6805  17.9504
    18.2109  18.4776  18.7907  18.8890  19.1312  19.4751  19.5009  19.6867
    19.6891  19.7555  19.9097  19.9462  20.0890  20.1820

          k = 0.3500 0.3500 0.0000 (  9291 PWs)   bands (ev):

  -101.2846-101.2846-100.9209 -59.2588 -59.2588 -59.2533 -59.2533 -58.9117
   -58.8610 -58.8602 -58.6984 -58.6982 -30.7502 -16.0876 -16.0769 -11.2060
   -11.1887 -10.9788  -6.9131  -6.8699  -6.6961  -6.5989  -6.5779  -6.3611
    -1.7540  -1.7260  -1.5873  -1.4403  -1.4334  -1.3516   3.5579   4.1306
     5.0768   5.1207   5.1224   5.1696   5.6366   6.1931   6.3905   6.4295
     6.6435   6.8634   6.9598   6.9678   7.5149   7.8294   7.9623   8.0557
     8.2735   8.4895   8.6110   8.6829   8.7473   8.8459   9.0760   9.0981
     9.1525   9.2004   9.4010   9.5219   9.7409  11.5142  11.6249  12.1944
    12.6348  13.6427  14.5319  15.0843  15.5348  15.6587  15.7816  16.2469
    16.4503  16.7269  16.8997  17.2495  17.3285  17.5492  17.7137  17.9549
    18.2881  18.5457  18.6761  18.8561  19.0855  19.5418  19.6162  19.7115
    19.7176  19.8199  19.8442  19.9743  20.1690  20.1789

          k = 0.3750 0.3750 0.0000 (  9297 PWs)   bands (ev):

  -101.2846-101.2846-100.9209 -59.2588 -59.2588 -59.2533 -59.2533 -58.9117
   -58.8610 -58.8602 -58.6984 -58.6982 -30.7488 -16.0765 -16.0659 -11.2291
   -11.2148 -10.9544  -6.8831  -6.8531  -6.7249  -6.5678  -6.5222  -6.3505
    -1.7974  -1.7699  -1.6232  -1.5421  -1.5196  -1.3608   3.4138   4.0006
     5.0224   5.0419   5.0890   5.1467   5.5989   6.2356   6.3672   6.4433
     6.7097   6.8023   6.9199   6.9681   7.6396   7.8347   7.9976   8.0446
     8.2962   8.5459   8.7154   8.8369   8.8443   8.8735   9.1223   9.1359
     9.1865   9.2419   9.4261   9.5600   9.7559  11.6978  11.7965  12.1698
    12.5278  13.4951  14.4233  15.2462  15.4172  15.5438  15.6779  16.1360
    16.5544  16.9700  17.0961  17.3542  17.5041  17.6826  17.7303  17.9571
    18.4458  18.5574  18.6578  18.8218  19.0260  19.5877  19.7173  19.7349
    19.7491  19.7694  19.8686  19.9979  20.1610  20.1737

          k = 0.4000 0.4000 0.0000 (  9312 PWs)   bands (ev):

  -101.2846-101.2846-100.9209 -59.2588 -59.2588 -59.2533 -59.2533 -58.9117
   -58.8610 -58.8602 -58.6984 -58.6983 -30.7475 -16.0672 -16.0566 -11.2485
   -11.2367 -10.9336  -6.8544  -6.8357  -6.7492  -6.5574  -6.4553  -6.3416
    -1.8340  -1.8071  -1.7002  -1.6501  -1.5499  -1.3621   3.2895   3.8873
     4.9272   5.0125   5.0603   5.1466   5.5727   6.2666   6.3474   6.4613
     6.7337   6.7592   6.9041   6.9752   7.7427   7.8606   8.0300   8.0351
     8.3090   8.6063   8.8146   8.8974   8.9227   8.9896   9.1537   9.1655
     9.2142   9.2746   9.4256   9.6196   9.7694  11.8605  11.9502  12.1637
    12.4387  13.3586  14.3053  15.3221  15.3723  15.4331  15.6014  16.0138
    16.6682  17.1251  17.1257  17.4232  17.7167  17.7344  17.9574  17.9815
    18.4648  18.6267  18.7830  18.8439  18.9869  19.5813  19.7283  19.7521
    19.7755  19.7983  19.8927  20.0157  20.1302  20.1450

          k = 0.4250 0.4250 0.0000 (  9326 PWs)   bands (ev):

  -101.2846-101.2846-100.9209 -59.2588 -59.2588 -59.2533 -59.2533 -58.9117
   -58.8610 -58.8602 -58.6984 -58.6983 -30.7465 -16.0597 -16.0492 -11.2641
   -11.2538 -10.9169  -6.8285  -6.8197  -6.7685  -6.5479  -6.4015  -6.3341
    -1.8632  -1.8368  -1.7814  -1.7435  -1.5610  -1.3623   3.1887   3.7949
     4.8529   4.9893   5.0370   5.1497   5.5552   6.2875   6.3317   6.4831
     6.7027   6.7355   6.9273   6.9811   7.7855   7.9347   8.0276   8.0580
     8.3152   8.6634   8.9036   8.9170   9.0018   9.1126   9.1688   9.1862
     9.2366   9.2988   9.4077   9.6851   9.7804  11.9967  12.0803  12.1792
    12.3679  13.2343  14.1928  15.2534  15.3343  15.3955  15.6171  15.8942
    16.7867  17.0997  17.2442  17.4805  17.6702  17.8798  17.9555  18.3247
    18.4803  18.7398  18.7591  18.9771  19.1217  19.5230  19.7377  19.7622
    19.7992  19.8550  19.8732  20.0224  20.0885  20.1148

          k = 0.4500 0.4500 0.0000 (  9340 PWs)   bands (ev):

  -101.2846-101.2846-100.9209 -59.2588 -59.2588 -59.2533 -59.2533 -58.9117
   -58.8610 -58.8602 -58.6984 -58.6983 -30.7457 -16.0543 -16.0439 -11.2757
   -11.2659 -10.9046  -6.8076  -6.8072  -6.7821  -6.5401  -6.3635  -6.3273
    -1.8844  -1.8584  -1.8461  -1.8153  -1.5670  -1.3623   3.1143   3.7266
     4.8002   4.9726   5.0200   5.1536   5.5443   6.2999   6.3208   6.5071
     6.6728   6.7042   6.9591   6.9856   7.7958   8.0117   8.0286   8.0800
     8.3172   8.7109   8.9309   8.9785   9.0702   9.1737   9.1934   9.2072
     9.2557   9.3146   9.3790   9.7422   9.7884  12.1010  12.1803  12.2121
    12.3152  13.1267  14.0994  15.2107  15.2556  15.3516  15.6891  15.7911
    16.9019  17.0683  17.3592  17.5359  17.6000  17.8511  17.9507  18.6462
    18.6513  18.7008  18.8556  18.9858  19.3195  19.5772  19.7557  19.7566
    19.7951  19.8157  19.8955  19.9935  20.0650  20.1013

          k = 0.4750 0.4750 0.0000 (  9344 PWs)   bands (ev):

  -101.2846-101.2846-100.9209 -59.2588 -59.2588 -59.2533 -59.2533 -58.9117
   -58.8610 -58.8602 -58.6984 -58.6983 -30.7453 -16.0511 -16.0406 -11.2828
   -11.2731 -10.8972  -6.8005  -6.7940  -6.7889  -6.5351  -6.3436  -6.3200
    -1.8976  -1.8871  -1.8717  -1.8602  -1.5703  -1.3622   3.0687   3.6848
     4.7687   4.9624   5.0096   5.1567   5.5383   6.3047   6.3159   6.5291
     6.6514   6.6784   6.9815   6.9883   7.7988   8.0162   8.0789   8.0944
     8.3172   8.7426   8.9397   9.0322   9.1202   9.1720   9.1907   9.2690
     9.2750   9.3213   9.3448   9.7808   9.7930  12.1699  12.2438  12.2475
    12.2798  13.0480  14.0374  15.1888  15.2056  15.3148  15.7197  15.7427
    16.9968  17.0466  17.4801  17.5285  17.5817  17.7402  17.9443  18.6744
    18.8499  18.8980  18.9195  18.9978  19.2998  19.6869  19.7225  19.7543
    19.8252  19.8575  19.9193  19.9478  20.0645  20.1002

          k = 0.5000 0.5000 0.0000 (  9360 PWs)   bands (ev):

  -101.2846-101.2846-100.9209 -59.2588 -59.2588 -59.2533 -59.2533 -58.9117
   -58.8610 -58.8602 -58.6984 -58.6983 -30.7451 -16.0500 -16.0395 -11.2852
   -11.2755 -10.8947  -6.7997  -6.7897  -6.7893  -6.5333  -6.3385  -6.3159
    -1.9034  -1.8996  -1.8776  -1.8740  -1.5715  -1.3622   3.0534   3.6707
     4.7583   4.9590   5.0061   5.1578   5.5364   6.3050   6.3155   6.5393
     6.6421   6.6688   6.9890   6.9895   7.7996   8.0153   8.0988   8.0998
     8.3170   8.7538   8.9427   9.0535   9.1393   9.1690   9.1882   9.2917
     9.2931   9.3200   9.3212   9.7943   9.7947  12.1969  12.2611  12.2655
    12.2669  13.0180  14.0157  15.1799  15.1911  15.3016  15.6938  15.7614
    17.0328  17.0435  17.4951  17.5887  17.6126  17.6181  17.9409  18.6652
    18.9417  18.9430  19.0019  19.0041  19.2803  19.6280  19.6939  19.7621
    19.8284  19.9226  19.9352  19.9958  20.0655  20.1010

     Writing all to output data dir ./YBCO6/YBCO6.save/
 
     init_run     :      0.66s CPU      0.81s WALL (       1 calls)
     electrons    :    314.48s CPU    319.73s WALL (       1 calls)

     Called by init_run:
     wfcinit      :      0.00s CPU      0.00s WALL (       1 calls)
     wfcinit:atom :      0.10s CPU      0.14s WALL (     101 calls)
     wfcinit:wfcr :      7.91s CPU      8.04s WALL (     101 calls)
     potinit      :      0.01s CPU      0.01s WALL (       1 calls)
     hinit0       :      0.20s CPU      0.21s WALL (       1 calls)

     Called by electrons:
     c_bands      :    314.48s CPU    319.73s WALL (       1 calls)
     v_of_rho     :      0.01s CPU      0.01s WALL (       1 calls)
     v_h          :      0.00s CPU      0.00s WALL (       1 calls)
     v_xc         :      0.00s CPU      0.00s WALL (       1 calls)
     newd         :      0.40s CPU      0.54s WALL (       1 calls)

     Called by c_bands:
     init_us_2    :      0.13s CPU      0.18s WALL (     101 calls)
     init_us_2:cp :      0.13s CPU      0.18s WALL (     101 calls)
     cegterg      :    304.32s CPU    309.19s WALL (     346 calls)

     Called by sum_band:

     Called by *egterg:
     cdiaghg      :     39.36s CPU     39.73s WALL (    6217 calls)
     cegterg:over :     32.58s CPU     33.49s WALL (    6116 calls)
     cegterg:upda :     18.46s CPU     18.55s WALL (    6116 calls)
     cegterg:last :     42.37s CPU     42.40s WALL (    2524 calls)
     h_psi        :    148.98s CPU    152.09s WALL (    6563 calls)
     s_psi        :     19.68s CPU     19.79s WALL (    6563 calls)
     g_psi        :      0.95s CPU      0.96s WALL (    6116 calls)

     Called by h_psi:
     h_psi:calbec :     20.53s CPU     20.98s WALL (    6563 calls)
     vloc_psi     :    106.77s CPU    109.19s WALL (    6563 calls)
     add_vuspsi   :     20.34s CPU     20.55s WALL (    6563 calls)

     General routines
     calbec       :     20.51s CPU     20.97s WALL (    6563 calls)
     fft          :      0.01s CPU      0.01s WALL (       6 calls)
     ffts         :      0.00s CPU      0.00s WALL (       1 calls)
     fftw         :     78.40s CPU     80.14s WALL (  520744 calls)
     interpolate  :      0.00s CPU      0.00s WALL (       1 calls)
     davcio       :      0.18s CPU      0.31s WALL (     202 calls)
 
     Parallel routines
 
     PWSCF        :   5m15.60s CPU   5m21.76s WALL

 
   This run was terminated on:   3: 7:55  31Dec2023            

=------------------------------------------------------------------------------=
   JOB DONE.
=------------------------------------------------------------------------------=
