
     Program PWSCF v.7.2 starts on 31Dec2023 at  2:52:24 

     This program is part of the open-source Quantum ESPRESSO suite
     for quantum simulation of materials; please cite
         "P. Giannozzi et al., J. Phys.:Condens. Matter 21 395502 (2009);
         "P. Giannozzi et al., J. Phys.:Condens. Matter 29 465901 (2017);
         "P. Giannozzi et al., J. Chem. Phys. 152 154105 (2020);
          URL http://www.quantum-espresso.org", 
     in publications or presentations arising from this work. More details at
     http://www.quantum-espresso.org/quote

     Parallel version (MPI), running on     4 processors

     MPI processes distributed on     1 nodes
     6015 MiB available memory on the printing compute node when the environment starts
 
     Waiting for input...
     Reading input from standard input

     Current dimensions of program PWSCF are:
     Max number of different atomic species (ntypx) = 10
     Max number of k-points (npk) =  40000
     Max angular momentum in pseudopotentials (lmaxx) =  4
 
     R & G space division:  proc/nbgrp/npool/nimage =       4
     Subspace diagonalization in iterative solution of the eigenvalue problem:
     a serial algorithm will be used

 
     Parallelization info
     --------------------
     sticks:   dense  smooth     PW     G-vecs:    dense   smooth      PW
     Min         577     258     73                62701    18582    2927
     Max         579     259     74                62707    18585    2938
     Sum        2313    1033    293               250811    74333   11719
 
     Using Slab Decomposition
 


     bravais-lattice index     =            6
     lattice parameter (alat)  =       7.3208  a.u.
     unit-cell volume          =    1184.0154 (a.u.)^3
     number of atoms/cell      =           12
     number of atomic types    =            4
     number of electrons       =       124.00
     number of Kohn-Sham states=           74
     kinetic-energy cutoff     =      60.0000  Ry
     charge density cutoff     =     540.0000  Ry
     scf convergence threshold =      1.0E-08
     mixing beta               =       0.1000
     number of iterations used =            8  plain     mixing
     Exchange-correlation= SLA  PZ   NOGX NOGC
                           (   1   1   0   0   0   0   0)

     celldm(1)=   7.320840  celldm(2)=   0.000000  celldm(3)=   3.017690
     celldm(4)=   0.000000  celldm(5)=   0.000000  celldm(6)=   0.000000

     crystal axes: (cart. coord. in units of alat)
               a(1) = (   1.000000   0.000000   0.000000 )  
               a(2) = (   0.000000   1.000000   0.000000 )  
               a(3) = (   0.000000   0.000000   3.017690 )  

     reciprocal axes: (cart. coord. in units 2 pi/alat)
               b(1) = (  1.000000  0.000000  0.000000 )  
               b(2) = (  0.000000  1.000000  0.000000 )  
               b(3) = (  0.000000  0.000000  0.331379 )  


     PseudoPot. # 1 for Y  read from file:
     ~/q-e/pseudo/gbrv_lda/y_lda_v1.4.uspp.F.UPF
     MD5 check sum: Not computed, couldn't open file
     Pseudo is Ultrasoft + core correction, Zval = 11.0
     Generated by new atomic code, or converted to UPF format
     Using radial grid of  885 points,  6 beta functions with: 
                l(1) =   0
                l(2) =   0
                l(3) =   1
                l(4) =   1
                l(5) =   2
                l(6) =   2
     Q(r) pseudized with  8 coefficients,  rinner =    1.200   1.200   1.200
                                                       1.200   1.200

     PseudoPot. # 2 for Ba read from file:
     ~/q-e/pseudo/gbrv_lda/ba_lda_v1.uspp.F.UPF
     MD5 check sum: Not computed, couldn't open file
     Pseudo is Ultrasoft + core correction, Zval = 10.0
     Generated by new atomic code, or converted to UPF format
     Using radial grid of  907 points,  7 beta functions with: 
                l(1) =   0
                l(2) =   0
                l(3) =   1
                l(4) =   1
                l(5) =   2
                l(6) =   2
                l(7) =   3
     Q(r) pseudized with  6 coefficients,  rinner =    1.700   1.700   1.700
                                                       1.700   1.700   1.700
                                                       1.700

     PseudoPot. # 3 for Cu read from file:
     ~/q-e/pseudo/gbrv_lda/cu_lda_v1.2.uspp.F.UPF
     MD5 check sum: Not computed, couldn't open file
     Pseudo is Ultrasoft + core correction, Zval = 19.0
     Generated by new atomic code, or converted to UPF format
     Using radial grid of  867 points,  6 beta functions with: 
                l(1) =   0
                l(2) =   0
                l(3) =   1
                l(4) =   1
                l(5) =   2
                l(6) =   2
     Q(r) pseudized with  8 coefficients,  rinner =    1.150   1.150   1.150
                                                       1.150   1.150

     PseudoPot. # 4 for O  read from file:
     ~/q-e/pseudo/gbrv_lda/o_lda_v1.2.uspp.F.UPF
     MD5 check sum: Not computed, couldn't open file
     Pseudo is Ultrasoft + core correction, Zval =  6.0
     Generated by new atomic code, or converted to UPF format
     Using radial grid of  737 points,  5 beta functions with: 
                l(1) =   0
                l(2) =   0
                l(3) =   1
                l(4) =   1
                l(5) =   2
     Q(r) pseudized with  8 coefficients,  rinner =    0.900   0.900   0.900
                                                       0.900   0.900

     atomic species   valence    mass     pseudopotential
     Y                11.00    88.90584     Y ( 1.00)
     Ba               10.00   137.32700     Ba( 1.00)
     Cu               19.00    63.54600     Cu( 1.00)
     O                 6.00    15.99900     O ( 1.00)

      8 Sym. Ops., with inversion, found


                                    s                        frac. trans.

      isym =  1     identity                                     

 cryst.   s( 1) = (     1          0          0      )
                  (     0          1          0      )
                  (     0          0          1      )

 cart.    s( 1) = (  1.0000000  0.0000000  0.0000000 )
                  (  0.0000000  1.0000000  0.0000000 )
                  (  0.0000000  0.0000000  1.0000000 )


      isym =  2     180 deg rotation - cart. axis [0,0,1]        

 cryst.   s( 2) = (    -1          0          0      )
                  (     0         -1          0      )
                  (     0          0          1      )

 cart.    s( 2) = ( -1.0000000  0.0000000  0.0000000 )
                  (  0.0000000 -1.0000000  0.0000000 )
                  (  0.0000000  0.0000000  1.0000000 )


      isym =  3     180 deg rotation - cart. axis [0,1,0]        

 cryst.   s( 3) = (    -1          0          0      )
                  (     0          1          0      )
                  (     0          0         -1      )

 cart.    s( 3) = ( -1.0000000  0.0000000  0.0000000 )
                  (  0.0000000  1.0000000  0.0000000 )
                  (  0.0000000  0.0000000 -1.0000000 )


      isym =  4     180 deg rotation - cart. axis [1,0,0]        

 cryst.   s( 4) = (     1          0          0      )
                  (     0         -1          0      )
                  (     0          0         -1      )

 cart.    s( 4) = (  1.0000000  0.0000000  0.0000000 )
                  (  0.0000000 -1.0000000  0.0000000 )
                  (  0.0000000  0.0000000 -1.0000000 )


      isym =  5     inversion                                    

 cryst.   s( 5) = (    -1          0          0      )
                  (     0         -1          0      )
                  (     0          0         -1      )

 cart.    s( 5) = ( -1.0000000  0.0000000  0.0000000 )
                  (  0.0000000 -1.0000000  0.0000000 )
                  (  0.0000000  0.0000000 -1.0000000 )


      isym =  6     inv. 180 deg rotation - cart. axis [0,0,1]   

 cryst.   s( 6) = (     1          0          0      )
                  (     0          1          0      )
                  (     0          0         -1      )

 cart.    s( 6) = (  1.0000000  0.0000000  0.0000000 )
                  (  0.0000000  1.0000000  0.0000000 )
                  (  0.0000000  0.0000000 -1.0000000 )


      isym =  7     inv. 180 deg rotation - cart. axis [0,1,0]   

 cryst.   s( 7) = (     1          0          0      )
                  (     0         -1          0      )
                  (     0          0          1      )

 cart.    s( 7) = (  1.0000000  0.0000000  0.0000000 )
                  (  0.0000000 -1.0000000  0.0000000 )
                  (  0.0000000  0.0000000  1.0000000 )


      isym =  8     inv. 180 deg rotation - cart. axis [1,0,0]   

 cryst.   s( 8) = (    -1          0          0      )
                  (     0          1          0      )
                  (     0          0          1      )

 cart.    s( 8) = ( -1.0000000  0.0000000  0.0000000 )
                  (  0.0000000  1.0000000  0.0000000 )
                  (  0.0000000  0.0000000  1.0000000 )


     point group D_2h (mmm) 
     there are  8 classes
     the character table:

       E     C2    C2'   C2''  i     s_v   s_v'  s_v''
A_g    1.00  1.00  1.00  1.00  1.00  1.00  1.00  1.00
B_1g   1.00  1.00 -1.00 -1.00  1.00  1.00 -1.00 -1.00
B_2g   1.00 -1.00  1.00 -1.00  1.00 -1.00  1.00 -1.00
B_3g   1.00 -1.00 -1.00  1.00  1.00 -1.00 -1.00  1.00
A_u    1.00  1.00  1.00  1.00 -1.00 -1.00 -1.00 -1.00
B_1u   1.00  1.00 -1.00 -1.00 -1.00 -1.00  1.00  1.00
B_2u   1.00 -1.00  1.00 -1.00 -1.00  1.00 -1.00  1.00
B_3u   1.00 -1.00 -1.00  1.00 -1.00  1.00  1.00 -1.00

     the symmetry operations in each class and the name of the first element:

     E        1
          identity                                               
     C2       2
          180 deg rotation - cart. axis [0,0,1]                  
     C2'      4
          180 deg rotation - cart. axis [1,0,0]                  
     C2''     3
          180 deg rotation - cart. axis [0,1,0]                  
     i        5
          inversion                                              
     s_v      6
          inv. 180 deg rotation - cart. axis [0,0,1]             
     s_v'     8
          inv. 180 deg rotation - cart. axis [1,0,0]             
     s_v''    7
          inv. 180 deg rotation - cart. axis [0,1,0]             

   Cartesian axes

     site n.     atom                  positions (alat units)
         1        Y      tau(   1) = (   0.5000000   0.5000000   1.5088451  )
         2        Ba     tau(   2) = (   0.5000000   0.5000000   0.5615829  )
         3        Ba     tau(   3) = (   0.5000000   0.5000000   2.4561072  )
         4        Cu     tau(   4) = (   0.0000000   0.0000000   0.0000000  )
         5        Cu     tau(   5) = (   0.0000000   0.0000000   1.0772132  )
         6        Cu     tau(   6) = (   0.0000000   0.0000000   1.9404769  )
         7        O      tau(   7) = (   0.5000000   0.0000000   1.1379760  )
         8        O      tau(   8) = (   0.5000000   0.0000000   1.8797141  )
         9        O      tau(   9) = (   0.0000000   0.5000000   1.1346923  )
        10        O      tau(  10) = (   0.0000000   0.5000000   1.8829979  )
        11        O      tau(  11) = (   0.0000000   0.0000000   0.4705240  )
        12        O      tau(  12) = (   0.0000000   0.0000000   2.5471662  )

   Crystallographic axes

     site n.     atom                  positions (cryst. coord.)
         1        Y      tau(   1) = (  0.5000000  0.5000000  0.5000000  )
         2        Ba     tau(   2) = (  0.5000000  0.5000000  0.1860969  )
         3        Ba     tau(   3) = (  0.5000000  0.5000000  0.8139031  )
         4        Cu     tau(   4) = (  0.0000000  0.0000000  0.0000000  )
         5        Cu     tau(   5) = (  0.0000000  0.0000000  0.3569661  )
         6        Cu     tau(   6) = (  0.0000000  0.0000000  0.6430339  )
         7        O      tau(   7) = (  0.5000000  0.0000000  0.3771017  )
         8        O      tau(   8) = (  0.5000000  0.0000000  0.6228983  )
         9        O      tau(   9) = (  0.0000000  0.5000000  0.3760135  )
        10        O      tau(  10) = (  0.0000000  0.5000000  0.6239865  )
        11        O      tau(  11) = (  0.0000000  0.0000000  0.1559219  )
        12        O      tau(  12) = (  0.0000000  0.0000000  0.8440781  )

     number of k points=    12  Methfessel-Paxton smearing, width (Ry)=  0.0100
                       cart. coord. in units 2pi/alat
        k(    1) = (   0.0000000   0.0000000   0.0000000), wk =   0.1250000
        k(    2) = (   0.0000000   0.0000000   0.0828448), wk =   0.2500000
        k(    3) = (   0.0000000   0.0000000  -0.1656896), wk =   0.1250000
        k(    4) = (   0.0000000  -0.5000000   0.0000000), wk =   0.1250000
        k(    5) = (   0.0000000  -0.5000000   0.0828448), wk =   0.2500000
        k(    6) = (   0.0000000  -0.5000000  -0.1656896), wk =   0.1250000
        k(    7) = (  -0.5000000  -0.5000000   0.0000000), wk =   0.1250000
        k(    8) = (  -0.5000000  -0.5000000   0.0828448), wk =   0.2500000
        k(    9) = (  -0.5000000  -0.5000000  -0.1656896), wk =   0.1250000
        k(   10) = (  -0.5000000   0.0000000   0.0000000), wk =   0.1250000
        k(   11) = (  -0.5000000   0.0000000  -0.0828448), wk =   0.2500000
        k(   12) = (  -0.5000000   0.0000000   0.1656896), wk =   0.1250000

                       cryst. coord.
        k(    1) = (   0.0000000   0.0000000   0.0000000), wk =   0.1250000
        k(    2) = (   0.0000000   0.0000000   0.2500000), wk =   0.2500000
        k(    3) = (   0.0000000   0.0000000  -0.5000000), wk =   0.1250000
        k(    4) = (   0.0000000  -0.5000000   0.0000000), wk =   0.1250000
        k(    5) = (   0.0000000  -0.5000000   0.2500000), wk =   0.2500000
        k(    6) = (   0.0000000  -0.5000000  -0.5000000), wk =   0.1250000
        k(    7) = (  -0.5000000  -0.5000000   0.0000000), wk =   0.1250000
        k(    8) = (  -0.5000000  -0.5000000   0.2500000), wk =   0.2500000
        k(    9) = (  -0.5000000  -0.5000000  -0.5000000), wk =   0.1250000
        k(   10) = (  -0.5000000   0.0000000   0.0000000), wk =   0.1250000
        k(   11) = (  -0.5000000   0.0000000  -0.2500000), wk =   0.2500000
        k(   12) = (  -0.5000000   0.0000000   0.5000000), wk =   0.1250000

     Dense  grid:   250811 G-vectors     FFT dimensions: (  60,  60, 180)

     Smooth grid:    74333 G-vectors     FFT dimensions: (  40,  40, 120)

     Dynamical RAM for                 wfc:       2.62 MB

     Dynamical RAM for     wfc (w. buffer):      34.10 MB

     Dynamical RAM for           str. fact:       3.83 MB

     Dynamical RAM for           local pot:       0.00 MB

     Dynamical RAM for          nlocal pot:       7.09 MB

     Dynamical RAM for                qrad:      13.92 MB

     Dynamical RAM for          rho,v,vnew:       6.58 MB

     Dynamical RAM for               rhoin:       2.19 MB

     Dynamical RAM for            rho*nmix:      15.31 MB

     Dynamical RAM for           G-vectors:       3.73 MB

     Dynamical RAM for          h,s,v(r/c):       1.00 MB

     Dynamical RAM for          <psi|beta>:       0.23 MB

     Dynamical RAM for                 psi:       5.25 MB

     Dynamical RAM for                hpsi:       5.25 MB

     Dynamical RAM for                spsi:       5.25 MB

     Dynamical RAM for      wfcinit/wfcrot:       7.47 MB

     Dynamical RAM for           addusdens:     342.52 MB

     Estimated static dynamical RAM per process >      82.40 MB

     Estimated max dynamical RAM per process >     440.23 MB

     Estimated total dynamical RAM >       1.72 GB

     Check: negative core charge=   -0.000002

     Initial potential from superposition of free atoms

     starting charge     120.9708, renormalised to     124.0000

     negative rho (up, down):  2.007E-01 0.000E+00
     Starting wfcs are  102 randomized atomic wfcs

     total cpu time spent up to now is        1.8 secs

     Self-consistent Calculation

     iteration #  1     ecut=    60.00 Ry     beta= 0.10
     Davidson diagonalization with overlap

---- Real-time Memory Report at c_bands before calling an iterative solver
           479 MiB given to the printing process from OS
             0 MiB allocation reported by mallinfo(arena+hblkhd)
          5489 MiB available memory on the node where the printing process lives
------------------
     ethr =  1.00E-02,  avg # of iterations =  2.1

     negative rho (up, down):  1.984E-01 0.000E+00

     total cpu time spent up to now is        5.1 secs

     total energy              =   -1638.92488418 Ry
     estimated scf accuracy    <       1.65132805 Ry

     iteration #  2     ecut=    60.00 Ry     beta= 0.10
     Davidson diagonalization with overlap

---- Real-time Memory Report at c_bands before calling an iterative solver
           560 MiB given to the printing process from OS
             0 MiB allocation reported by mallinfo(arena+hblkhd)
          5368 MiB available memory on the node where the printing process lives
------------------
     ethr =  1.33E-03,  avg # of iterations =  2.0

     negative rho (up, down):  1.926E-01 0.000E+00

     total cpu time spent up to now is        8.1 secs

     total energy              =   -1638.64664206 Ry
     estimated scf accuracy    <       0.92421397 Ry

     iteration #  3     ecut=    60.00 Ry     beta= 0.10
     Davidson diagonalization with overlap

---- Real-time Memory Report at c_bands before calling an iterative solver
           567 MiB given to the printing process from OS
             0 MiB allocation reported by mallinfo(arena+hblkhd)
          5365 MiB available memory on the node where the printing process lives
------------------
     ethr =  7.45E-04,  avg # of iterations =  2.1

     negative rho (up, down):  1.928E-01 0.000E+00

     total cpu time spent up to now is       11.2 secs

     total energy              =   -1638.73543086 Ry
     estimated scf accuracy    <       0.98597875 Ry

     iteration #  4     ecut=    60.00 Ry     beta= 0.10
     Davidson diagonalization with overlap

---- Real-time Memory Report at c_bands before calling an iterative solver
           567 MiB given to the printing process from OS
             0 MiB allocation reported by mallinfo(arena+hblkhd)
          5361 MiB available memory on the node where the printing process lives
------------------
     ethr =  7.45E-04,  avg # of iterations =  1.0

     negative rho (up, down):  1.904E-01 0.000E+00

     total cpu time spent up to now is       14.1 secs

     total energy              =   -1638.76304615 Ry
     estimated scf accuracy    <       0.16115108 Ry

     iteration #  5     ecut=    60.00 Ry     beta= 0.10
     Davidson diagonalization with overlap

---- Real-time Memory Report at c_bands before calling an iterative solver
           568 MiB given to the printing process from OS
             0 MiB allocation reported by mallinfo(arena+hblkhd)
          5359 MiB available memory on the node where the printing process lives
------------------
     ethr =  1.30E-04,  avg # of iterations =  9.0

     negative rho (up, down):  1.840E-01 0.000E+00

     total cpu time spent up to now is       17.6 secs

     total energy              =   -1638.72290971 Ry
     estimated scf accuracy    <       0.09358731 Ry

     iteration #  6     ecut=    60.00 Ry     beta= 0.10
     Davidson diagonalization with overlap

---- Real-time Memory Report at c_bands before calling an iterative solver
           568 MiB given to the printing process from OS
             0 MiB allocation reported by mallinfo(arena+hblkhd)
          5226 MiB available memory on the node where the printing process lives
------------------
     ethr =  7.55E-05,  avg # of iterations =  9.9

     negative rho (up, down):  1.825E-01 0.000E+00

     total cpu time spent up to now is       21.7 secs

     total energy              =   -1638.70672552 Ry
     estimated scf accuracy    <       0.12879949 Ry

     iteration #  7     ecut=    60.00 Ry     beta= 0.10
     Davidson diagonalization with overlap

---- Real-time Memory Report at c_bands before calling an iterative solver
           569 MiB given to the printing process from OS
             0 MiB allocation reported by mallinfo(arena+hblkhd)
          5351 MiB available memory on the node where the printing process lives
------------------
     ethr =  7.55E-05,  avg # of iterations =  2.5

     negative rho (up, down):  1.816E-01 0.000E+00

     total cpu time spent up to now is       25.4 secs

     total energy              =   -1638.74260043 Ry
     estimated scf accuracy    <       0.05146549 Ry

     iteration #  8     ecut=    60.00 Ry     beta= 0.10
     Davidson diagonalization with overlap

---- Real-time Memory Report at c_bands before calling an iterative solver
           569 MiB given to the printing process from OS
             0 MiB allocation reported by mallinfo(arena+hblkhd)
          5348 MiB available memory on the node where the printing process lives
------------------
     ethr =  4.15E-05,  avg # of iterations =  3.2

     negative rho (up, down):  1.803E-01 0.000E+00

     total cpu time spent up to now is       29.0 secs

     total energy              =   -1638.73468798 Ry
     estimated scf accuracy    <       0.06405239 Ry

     iteration #  9     ecut=    60.00 Ry     beta= 0.10
     Davidson diagonalization with overlap

---- Real-time Memory Report at c_bands before calling an iterative solver
           570 MiB given to the printing process from OS
             0 MiB allocation reported by mallinfo(arena+hblkhd)
          5345 MiB available memory on the node where the printing process lives
------------------
     ethr =  4.15E-05,  avg # of iterations =  1.0

     negative rho (up, down):  1.801E-01 0.000E+00

     total cpu time spent up to now is       32.3 secs

     total energy              =   -1638.73571911 Ry
     estimated scf accuracy    <       0.02570854 Ry

     iteration # 10     ecut=    60.00 Ry     beta= 0.10
     Davidson diagonalization with overlap

---- Real-time Memory Report at c_bands before calling an iterative solver
           571 MiB given to the printing process from OS
             0 MiB allocation reported by mallinfo(arena+hblkhd)
          5344 MiB available memory on the node where the printing process lives
------------------
     ethr =  2.07E-05,  avg # of iterations =  1.0

     negative rho (up, down):  1.796E-01 0.000E+00

     total cpu time spent up to now is       35.6 secs

     total energy              =   -1638.73311968 Ry
     estimated scf accuracy    <       0.02075387 Ry

     iteration # 11     ecut=    60.00 Ry     beta= 0.10
     Davidson diagonalization with overlap

---- Real-time Memory Report at c_bands before calling an iterative solver
           571 MiB given to the printing process from OS
             0 MiB allocation reported by mallinfo(arena+hblkhd)
          5341 MiB available memory on the node where the printing process lives
------------------
     ethr =  1.67E-05,  avg # of iterations =  2.2

     negative rho (up, down):  1.797E-01 0.000E+00

     total cpu time spent up to now is       39.0 secs

     total energy              =   -1638.73296163 Ry
     estimated scf accuracy    <       0.00993571 Ry

     iteration # 12     ecut=    60.00 Ry     beta= 0.10
     Davidson diagonalization with overlap

---- Real-time Memory Report at c_bands before calling an iterative solver
           571 MiB given to the printing process from OS
             0 MiB allocation reported by mallinfo(arena+hblkhd)
          5343 MiB available memory on the node where the printing process lives
------------------
     ethr =  8.01E-06,  avg # of iterations =  2.8

     negative rho (up, down):  1.796E-01 0.000E+00

     total cpu time spent up to now is       42.5 secs

     total energy              =   -1638.73211657 Ry
     estimated scf accuracy    <       0.00767246 Ry

     iteration # 13     ecut=    60.00 Ry     beta= 0.10
     Davidson diagonalization with overlap

---- Real-time Memory Report at c_bands before calling an iterative solver
           571 MiB given to the printing process from OS
             0 MiB allocation reported by mallinfo(arena+hblkhd)
          5342 MiB available memory on the node where the printing process lives
------------------
     ethr =  6.19E-06,  avg # of iterations =  3.1
     Minimization algorithm failed to find Fermi energy: reverting to bisection
     Possible cause: smearing is larger than the electronic band-gap.

     negative rho (up, down):  1.794E-01 0.000E+00

     total cpu time spent up to now is       46.1 secs

     total energy              =   -1638.73193983 Ry
     estimated scf accuracy    <       0.00098289 Ry

     iteration # 14     ecut=    60.00 Ry     beta= 0.10
     Davidson diagonalization with overlap

---- Real-time Memory Report at c_bands before calling an iterative solver
           571 MiB given to the printing process from OS
             0 MiB allocation reported by mallinfo(arena+hblkhd)
          5342 MiB available memory on the node where the printing process lives
------------------
     ethr =  7.93E-07,  avg # of iterations =  3.4

     negative rho (up, down):  1.791E-01 0.000E+00

     total cpu time spent up to now is       49.9 secs

     total energy              =   -1638.73152030 Ry
     estimated scf accuracy    <       0.00664197 Ry

     iteration # 15     ecut=    60.00 Ry     beta= 0.10
     Davidson diagonalization with overlap

---- Real-time Memory Report at c_bands before calling an iterative solver
           571 MiB given to the printing process from OS
             0 MiB allocation reported by mallinfo(arena+hblkhd)
          5343 MiB available memory on the node where the printing process lives
------------------
     ethr =  7.93E-07,  avg # of iterations =  4.2

     negative rho (up, down):  1.792E-01 0.000E+00

     total cpu time spent up to now is       53.8 secs

     total energy              =   -1638.73134097 Ry
     estimated scf accuracy    <       0.00227135 Ry

     iteration # 16     ecut=    60.00 Ry     beta= 0.10
     Davidson diagonalization with overlap

---- Real-time Memory Report at c_bands before calling an iterative solver
           571 MiB given to the printing process from OS
             0 MiB allocation reported by mallinfo(arena+hblkhd)
          5340 MiB available memory on the node where the printing process lives
------------------
     ethr =  7.93E-07,  avg # of iterations =  1.6

     negative rho (up, down):  1.793E-01 0.000E+00

     total cpu time spent up to now is       57.3 secs

     total energy              =   -1638.73135784 Ry
     estimated scf accuracy    <       0.00084304 Ry

     iteration # 17     ecut=    60.00 Ry     beta= 0.10
     Davidson diagonalization with overlap

---- Real-time Memory Report at c_bands before calling an iterative solver
           571 MiB given to the printing process from OS
             0 MiB allocation reported by mallinfo(arena+hblkhd)
          5340 MiB available memory on the node where the printing process lives
------------------
     ethr =  6.80E-07,  avg # of iterations =  1.2

     negative rho (up, down):  1.792E-01 0.000E+00

     total cpu time spent up to now is       60.7 secs

     total energy              =   -1638.73121708 Ry
     estimated scf accuracy    <       0.00111863 Ry

     iteration # 18     ecut=    60.00 Ry     beta= 0.10
     Davidson diagonalization with overlap

---- Real-time Memory Report at c_bands before calling an iterative solver
           571 MiB given to the printing process from OS
             0 MiB allocation reported by mallinfo(arena+hblkhd)
          5342 MiB available memory on the node where the printing process lives
------------------
     ethr =  6.80E-07,  avg # of iterations =  1.5

     negative rho (up, down):  1.792E-01 0.000E+00

     total cpu time spent up to now is       64.1 secs

     total energy              =   -1638.73131963 Ry
     estimated scf accuracy    <       0.00071261 Ry

     iteration # 19     ecut=    60.00 Ry     beta= 0.10
     Davidson diagonalization with overlap

---- Real-time Memory Report at c_bands before calling an iterative solver
           571 MiB given to the printing process from OS
             0 MiB allocation reported by mallinfo(arena+hblkhd)
          5342 MiB available memory on the node where the printing process lives
------------------
     ethr =  5.75E-07,  avg # of iterations =  1.0

     negative rho (up, down):  1.792E-01 0.000E+00

     total cpu time spent up to now is       67.4 secs

     total energy              =   -1638.73130453 Ry
     estimated scf accuracy    <       0.00018197 Ry

     iteration # 20     ecut=    60.00 Ry     beta= 0.10
     Davidson diagonalization with overlap

---- Real-time Memory Report at c_bands before calling an iterative solver
           571 MiB given to the printing process from OS
             0 MiB allocation reported by mallinfo(arena+hblkhd)
          5342 MiB available memory on the node where the printing process lives
------------------
     ethr =  1.47E-07,  avg # of iterations =  1.0

     negative rho (up, down):  1.791E-01 0.000E+00

     total cpu time spent up to now is       70.7 secs

     total energy              =   -1638.73131511 Ry
     estimated scf accuracy    <       0.00005580 Ry

     iteration # 21     ecut=    60.00 Ry     beta= 0.10
     Davidson diagonalization with overlap

---- Real-time Memory Report at c_bands before calling an iterative solver
           571 MiB given to the printing process from OS
             0 MiB allocation reported by mallinfo(arena+hblkhd)
          5343 MiB available memory on the node where the printing process lives
------------------
     ethr =  4.50E-08,  avg # of iterations =  1.0

     negative rho (up, down):  1.791E-01 0.000E+00

     total cpu time spent up to now is       74.0 secs

     total energy              =   -1638.73131617 Ry
     estimated scf accuracy    <       0.00001446 Ry

     iteration # 22     ecut=    60.00 Ry     beta= 0.10
     Davidson diagonalization with overlap

---- Real-time Memory Report at c_bands before calling an iterative solver
           571 MiB given to the printing process from OS
             0 MiB allocation reported by mallinfo(arena+hblkhd)
          5342 MiB available memory on the node where the printing process lives
------------------
     ethr =  1.17E-08,  avg # of iterations =  1.7

     negative rho (up, down):  1.791E-01 0.000E+00

     total cpu time spent up to now is       77.4 secs

     total energy              =   -1638.73132247 Ry
     estimated scf accuracy    <       0.00010045 Ry

     iteration # 23     ecut=    60.00 Ry     beta= 0.10
     Davidson diagonalization with overlap

---- Real-time Memory Report at c_bands before calling an iterative solver
           571 MiB given to the printing process from OS
             0 MiB allocation reported by mallinfo(arena+hblkhd)
          5343 MiB available memory on the node where the printing process lives
------------------
     ethr =  1.17E-08,  avg # of iterations =  1.0

     negative rho (up, down):  1.791E-01 0.000E+00

     total cpu time spent up to now is       80.7 secs

     total energy              =   -1638.73131688 Ry
     estimated scf accuracy    <       0.00008147 Ry

     iteration # 24     ecut=    60.00 Ry     beta= 0.10
     Davidson diagonalization with overlap

---- Real-time Memory Report at c_bands before calling an iterative solver
           571 MiB given to the printing process from OS
             0 MiB allocation reported by mallinfo(arena+hblkhd)
          5343 MiB available memory on the node where the printing process lives
------------------
     ethr =  1.17E-08,  avg # of iterations =  1.0

     negative rho (up, down):  1.791E-01 0.000E+00

     total cpu time spent up to now is       84.0 secs

     total energy              =   -1638.73131944 Ry
     estimated scf accuracy    <       0.00000067 Ry

     iteration # 25     ecut=    60.00 Ry     beta= 0.10
     Davidson diagonalization with overlap

---- Real-time Memory Report at c_bands before calling an iterative solver
           571 MiB given to the printing process from OS
             0 MiB allocation reported by mallinfo(arena+hblkhd)
          5344 MiB available memory on the node where the printing process lives
------------------
     ethr =  5.41E-10,  avg # of iterations =  2.7

     negative rho (up, down):  1.791E-01 0.000E+00

     total cpu time spent up to now is       87.6 secs

     total energy              =   -1638.73131951 Ry
     estimated scf accuracy    <       0.00000003 Ry

     iteration # 26     ecut=    60.00 Ry     beta= 0.10
     Davidson diagonalization with overlap

---- Real-time Memory Report at c_bands before calling an iterative solver
           571 MiB given to the printing process from OS
             0 MiB allocation reported by mallinfo(arena+hblkhd)
          5344 MiB available memory on the node where the printing process lives
------------------
     ethr =  2.38E-11,  avg # of iterations =  3.8

     negative rho (up, down):  1.791E-01 0.000E+00

     total cpu time spent up to now is       91.6 secs

     total energy              =   -1638.73131954 Ry
     estimated scf accuracy    <       0.00000003 Ry

     iteration # 27     ecut=    60.00 Ry     beta= 0.10
     Davidson diagonalization with overlap

---- Real-time Memory Report at c_bands before calling an iterative solver
           571 MiB given to the printing process from OS
             0 MiB allocation reported by mallinfo(arena+hblkhd)
          5342 MiB available memory on the node where the printing process lives
------------------
     ethr =  2.27E-11,  avg # of iterations =  1.0

     negative rho (up, down):  1.791E-01 0.000E+00

     total cpu time spent up to now is       94.9 secs

     total energy              =   -1638.73131956 Ry
     estimated scf accuracy    <       0.00000003 Ry

     iteration # 28     ecut=    60.00 Ry     beta= 0.10
     Davidson diagonalization with overlap

---- Real-time Memory Report at c_bands before calling an iterative solver
           571 MiB given to the printing process from OS
             0 MiB allocation reported by mallinfo(arena+hblkhd)
          5342 MiB available memory on the node where the printing process lives
------------------
     ethr =  2.27E-11,  avg # of iterations =  1.0

     negative rho (up, down):  1.791E-01 0.000E+00

     total cpu time spent up to now is       98.1 secs

     End of self-consistent calculation

          k = 0.0000 0.0000 0.0000 (  9267 PWs)   bands (ev):

  -101.2842-101.2841-100.9211 -59.2584 -59.2584 -59.2529 -59.2528 -58.9120
   -58.8606 -58.8598 -58.6985 -58.6983 -30.7698 -16.2502 -16.2376 -11.3005
   -10.8047 -10.8018  -7.7835  -6.8869  -6.7164  -6.5401  -6.4431  -6.2793
    -1.6476  -1.3803  -1.1105  -1.1096  -1.0976  -1.0966   5.0404   5.3186
     5.3228   5.4709   5.6465   5.6570   6.4544   6.5557   6.9507   6.9512
     7.4959   7.5575   7.5641   7.6110   7.7935   7.8037   7.8141   7.8174
     7.8180   7.9418   8.1595   8.1700   8.2030   8.4533   8.4552   8.4966
     8.7069   8.8976   8.9159   9.0412   9.1131   9.7159   9.7174  12.1938
    12.9048  13.0932  13.2409  14.3295  14.8522  15.1294  15.1328  15.2575
    15.6298  15.9740

     occupation numbers 
     1.0000   1.0000   1.0000   1.0000   1.0000   1.0000   1.0000   1.0000
     1.0000   1.0000   1.0000   1.0000   1.0000   1.0000   1.0000   1.0000
     1.0000   1.0000   1.0000   1.0000   1.0000   1.0000   1.0000   1.0000
     1.0000   1.0000   1.0000   1.0000   1.0000   1.0000   1.0000   1.0000
     1.0000   1.0000   1.0000   1.0000   1.0000   1.0000   1.0000   1.0000
     1.0000   1.0000   1.0000   1.0000   1.0000   1.0000   1.0000   1.0000
     1.0000   1.0000   1.0000   1.0000   1.0000   1.0000   1.0000   1.0000
     1.0000   1.0000   1.0000   1.0000   1.0000   1.0355   1.0354  -0.0000
    -0.0000  -0.0000  -0.0000  -0.0000  -0.0000  -0.0000  -0.0000  -0.0000
    -0.0000  -0.0000

          k = 0.0000 0.0000 0.0828 (  9226 PWs)   bands (ev):

  -101.2842-101.2841-100.9211 -59.2584 -59.2584 -59.2529 -59.2528 -58.9120
   -58.8606 -58.8598 -58.6985 -58.6983 -30.7698 -16.2508 -16.2370 -11.3006
   -10.8047 -10.8018  -7.7829  -6.8912  -6.7096  -6.5401  -6.4464  -6.2793
    -1.6323  -1.3966  -1.1115  -1.1105  -1.0966  -1.0957   5.0543   5.3185
     5.3227   5.4712   5.6465   5.6570   6.4570   6.5565   6.9506   6.9510
     7.3279   7.5642   7.6109   7.6966   7.7852   7.7854   7.7939   7.8522
     7.8554   7.9484   8.1049   8.1061   8.2030   8.5308   8.5426   8.5778
     8.7062   8.8526   8.8706   9.0224   9.0538   9.7188   9.7204  12.3324
    12.9476  13.0007  13.1868  14.2287  14.8395  15.0987  15.1007  15.2575
    15.3626  16.3507

     occupation numbers 
     1.0000   1.0000   1.0000   1.0000   1.0000   1.0000   1.0000   1.0000
     1.0000   1.0000   1.0000   1.0000   1.0000   1.0000   1.0000   1.0000
     1.0000   1.0000   1.0000   1.0000   1.0000   1.0000   1.0000   1.0000
     1.0000   1.0000   1.0000   1.0000   1.0000   1.0000   1.0000   1.0000
     1.0000   1.0000   1.0000   1.0000   1.0000   1.0000   1.0000   1.0000
     1.0000   1.0000   1.0000   1.0000   1.0000   1.0000   1.0000   1.0000
     1.0000   1.0000   1.0000   1.0000   1.0000   1.0000   1.0000   1.0000
     1.0000   1.0000   1.0000   1.0000   1.0000   1.0353   1.0352  -0.0000
    -0.0000  -0.0000  -0.0000  -0.0000  -0.0000  -0.0000  -0.0000  -0.0000
    -0.0000  -0.0000

          k = 0.0000 0.0000-0.1657 (  9246 PWs)   bands (ev):

  -101.2842-101.2841-100.9211 -59.2584 -59.2584 -59.2529 -59.2528 -58.9120
   -58.8606 -58.8598 -58.6985 -58.6983 -30.7698 -16.2513 -16.2364 -11.3006
   -10.8047 -10.8018  -7.7822  -6.8953  -6.7030  -6.5401  -6.4499  -6.2793
    -1.6146  -1.4154  -1.1123  -1.1114  -1.0957  -1.0948   5.0688   5.3183
     5.3226   5.4704   5.6465   5.6571   6.4627   6.5574   6.9505   6.9509
     7.2333   7.5642   7.6109   7.7600   7.7776   7.7782   7.7871   7.8824
     7.8867   7.9544   8.0483   8.0533   8.2030   8.6403   8.6522   8.6877
     8.7051   8.7738   8.7873   8.9150   9.0493   9.7216   9.7233  12.5907
    12.7716  13.0407  13.0834  14.2330  14.6271  15.0700  15.0708  15.2575
    15.3977  16.4862

     occupation numbers 
     1.0000   1.0000   1.0000   1.0000   1.0000   1.0000   1.0000   1.0000
     1.0000   1.0000   1.0000   1.0000   1.0000   1.0000   1.0000   1.0000
     1.0000   1.0000   1.0000   1.0000   1.0000   1.0000   1.0000   1.0000
     1.0000   1.0000   1.0000   1.0000   1.0000   1.0000   1.0000   1.0000
     1.0000   1.0000   1.0000   1.0000   1.0000   1.0000   1.0000   1.0000
     1.0000   1.0000   1.0000   1.0000   1.0000   1.0000   1.0000   1.0000
     1.0000   1.0000   1.0000   1.0000   1.0000   1.0000   1.0000   1.0000
     1.0000   1.0000   1.0000   1.0000   1.0000   1.0351   1.0348  -0.0000
    -0.0000  -0.0000  -0.0000  -0.0000  -0.0000  -0.0000  -0.0000  -0.0000
    -0.0000  -0.0000

          k = 0.0000-0.5000 0.0000 (  9286 PWs)   bands (ev):

  -101.2842-101.2842-100.9211 -59.2585 -59.2584 -59.2528 -59.2528 -58.9120
   -58.8606 -58.8598 -58.6986 -58.6983 -30.7571 -16.1373 -16.1266 -11.3309
   -11.0816 -10.7862  -7.1449  -7.1157  -6.9789  -6.7089  -6.4840  -6.3930
    -1.5839  -1.3662  -1.1624  -1.0952  -0.8931  -0.8762   4.2319   4.4295
     5.0852   5.5892   5.8407   5.8411   6.0360   6.2722   6.3781   6.4197
     6.4596   6.6774   6.9004   7.0493   7.0718   7.1624   7.4544   7.7667
     7.7965   8.1212   8.1225   8.2876   8.3519   8.8392   8.8987   8.9113
     9.1180   9.1872   9.3511   9.3544   9.4706   9.5759  10.0427  11.5717
    13.7675  14.6181  15.0548  15.5049  15.7770  15.7973  15.7990  16.2422
    16.3841  16.6281

     occupation numbers 
     1.0000   1.0000   1.0000   1.0000   1.0000   1.0000   1.0000   1.0000
     1.0000   1.0000   1.0000   1.0000   1.0000   1.0000   1.0000   1.0000
     1.0000   1.0000   1.0000   1.0000   1.0000   1.0000   1.0000   1.0000
     1.0000   1.0000   1.0000   1.0000   1.0000   1.0000   1.0000   1.0000
     1.0000   1.0000   1.0000   1.0000   1.0000   1.0000   1.0000   1.0000
     1.0000   1.0000   1.0000   1.0000   1.0000   1.0000   1.0000   1.0000
     1.0000   1.0000   1.0000   1.0000   1.0000   1.0000   1.0000   1.0000
     1.0000   1.0000   1.0000   1.0000   1.0001   1.0033  -0.0352  -0.0000
    -0.0000  -0.0000  -0.0000  -0.0000  -0.0000  -0.0000  -0.0000  -0.0000
    -0.0000  -0.0000

          k = 0.0000-0.5000 0.0828 (  9292 PWs)   bands (ev):

  -101.2842-101.2842-100.9211 -59.2585 -59.2584 -59.2528 -59.2528 -58.9120
   -58.8606 -58.8598 -58.6986 -58.6983 -30.7571 -16.1377 -16.1261 -11.3309
   -11.0816 -10.7862  -7.2039  -7.0204  -6.9785  -6.7672  -6.4618  -6.3934
    -1.5741  -1.3768  -1.1624  -1.0952  -0.8940  -0.8753   4.2497   4.4106
     5.0847   5.5701   5.8381   5.8400   6.1326   6.2971   6.3601   6.4211
     6.4313   6.7062   6.7796   6.9176   7.0567   7.3864   7.3957   7.7812
     7.8074   8.1169   8.1211   8.3255   8.3568   8.8692   8.8942   8.9115
     9.0781   9.1844   9.3503   9.3541   9.4762   9.5653  10.0034  11.5915
    13.7902  14.5698  15.0550  15.5076  15.6244  15.7907  15.7991  16.2384
    16.3113  16.7126

     occupation numbers 
     1.0000   1.0000   1.0000   1.0000   1.0000   1.0000   1.0000   1.0000
     1.0000   1.0000   1.0000   1.0000   1.0000   1.0000   1.0000   1.0000
     1.0000   1.0000   1.0000   1.0000   1.0000   1.0000   1.0000   1.0000
     1.0000   1.0000   1.0000   1.0000   1.0000   1.0000   1.0000   1.0000
     1.0000   1.0000   1.0000   1.0000   1.0000   1.0000   1.0000   1.0000
     1.0000   1.0000   1.0000   1.0000   1.0000   1.0000   1.0000   1.0000
     1.0000   1.0000   1.0000   1.0000   1.0000   1.0000   1.0000   1.0000
     1.0000   1.0000   1.0000   1.0000   1.0001   1.0024  -0.0106  -0.0000
    -0.0000  -0.0000  -0.0000  -0.0000  -0.0000  -0.0000  -0.0000  -0.0000
    -0.0000  -0.0000

          k = 0.0000-0.5000-0.1657 (  9280 PWs)   bands (ev):

  -101.2842-101.2842-100.9211 -59.2585 -59.2584 -59.2528 -59.2528 -58.9120
   -58.8606 -58.8598 -58.6986 -58.6983 -30.7571 -16.1381 -16.1257 -11.3309
   -11.0816 -10.7862  -7.2289  -6.9781  -6.9127  -6.8673  -6.4443  -6.3939
    -1.5630  -1.3886  -1.1625  -1.0952  -0.8949  -0.8744   4.2732   4.3859
     5.0843   5.5543   5.8357   5.8389   6.2883   6.3436   6.3441   6.3816
     6.4225   6.5507   6.7348   6.9303   7.0639   7.3447   7.4892   7.7665
     7.8374   8.1114   8.1210   8.3614   8.3655   8.8893   8.9117   8.9365
     9.0001   9.1815   9.3495   9.3538   9.4822   9.5546   9.9636  11.6116
    13.8126  14.5171  15.0552  15.5104  15.5626  15.7279  15.8009  16.2343
    16.2560  16.8367

     occupation numbers 
     1.0000   1.0000   1.0000   1.0000   1.0000   1.0000   1.0000   1.0000
     1.0000   1.0000   1.0000   1.0000   1.0000   1.0000   1.0000   1.0000
     1.0000   1.0000   1.0000   1.0000   1.0000   1.0000   1.0000   1.0000
     1.0000   1.0000   1.0000   1.0000   1.0000   1.0000   1.0000   1.0000
     1.0000   1.0000   1.0000   1.0000   1.0000   1.0000   1.0000   1.0000
     1.0000   1.0000   1.0000   1.0000   1.0000   1.0000   1.0000   1.0000
     1.0000   1.0000   1.0000   1.0000   1.0000   1.0000   1.0000   1.0000
     1.0000   1.0000   1.0000   1.0000   1.0001   1.0018   0.0788  -0.0000
    -0.0000  -0.0000  -0.0000  -0.0000  -0.0000  -0.0000  -0.0000  -0.0000
    -0.0000  -0.0000

          k =-0.5000-0.5000 0.0000 (  9360 PWs)   bands (ev):

  -101.2842-101.2842-100.9211 -59.2585 -59.2584 -59.2529 -59.2529 -58.9120
   -58.8606 -58.8598 -58.6986 -58.6985 -30.7448 -16.0502 -16.0397 -11.2849
   -11.2752 -10.8944  -6.7995  -6.7896  -6.7894  -6.5334  -6.3384  -6.3157
    -1.9036  -1.8998  -1.8778  -1.8742  -1.5716  -1.3624   3.0535   3.6709
     4.7584   4.9592   5.0063   5.1577   5.5366   6.3052   6.3157   6.5393
     6.6423   6.6690   6.9888   6.9894   7.7999   8.0151   8.0987   8.0997
     8.3168   8.7540   8.9430   9.0533   9.1395   9.1693   9.1884   9.2920
     9.2932   9.3202   9.3214   9.7942   9.7945  12.1971  12.2609  12.2658
    12.2668  13.0181  14.0156  15.1798  15.1911  15.3015  15.6937  15.7616
    17.0330  17.0437

     occupation numbers 
     1.0000   1.0000   1.0000   1.0000   1.0000   1.0000   1.0000   1.0000
     1.0000   1.0000   1.0000   1.0000   1.0000   1.0000   1.0000   1.0000
     1.0000   1.0000   1.0000   1.0000   1.0000   1.0000   1.0000   1.0000
     1.0000   1.0000   1.0000   1.0000   1.0000   1.0000   1.0000   1.0000
     1.0000   1.0000   1.0000   1.0000   1.0000   1.0000   1.0000   1.0000
     1.0000   1.0000   1.0000   1.0000   1.0000   1.0000   1.0000   1.0000
     1.0000   1.0000   1.0000   1.0000   1.0000   1.0000   1.0000   1.0000
     1.0000   1.0000   1.0000   0.9382   0.9370  -0.0000  -0.0000  -0.0000
    -0.0000  -0.0000  -0.0000  -0.0000  -0.0000  -0.0000  -0.0000  -0.0000
    -0.0000  -0.0000

          k =-0.5000-0.5000 0.0828 (  9328 PWs)   bands (ev):

  -101.2842-101.2842-100.9211 -59.2585 -59.2584 -59.2529 -59.2529 -58.9120
   -58.8606 -58.8598 -58.6986 -58.6985 -30.7448 -16.0505 -16.0394 -11.2849
   -11.2752 -10.8944  -6.7996  -6.7896  -6.7893  -6.5335  -6.3383  -6.3157
    -1.9047  -1.9010  -1.8767  -1.8730  -1.5572  -1.3782   3.0658   3.6502
     4.7742   4.9592   5.0063   5.1657   5.5217   6.3071   6.3174   6.5214
     6.6427   6.6699   6.9865   6.9867   7.9293   8.0154   8.1013   8.1021
     8.3168   8.7540   8.7861   8.9443   9.1359   9.1546   9.2638   9.2882
     9.2932   9.3500   9.3518   9.7922   9.7928  12.1973  12.2658  12.2703
    12.2755  13.1691  14.0758  14.9022  15.2507  15.2661  15.5325  16.0059
    16.5817  16.5885

     occupation numbers 
     1.0000   1.0000   1.0000   1.0000   1.0000   1.0000   1.0000   1.0000
     1.0000   1.0000   1.0000   1.0000   1.0000   1.0000   1.0000   1.0000
     1.0000   1.0000   1.0000   1.0000   1.0000   1.0000   1.0000   1.0000
     1.0000   1.0000   1.0000   1.0000   1.0000   1.0000   1.0000   1.0000
     1.0000   1.0000   1.0000   1.0000   1.0000   1.0000   1.0000   1.0000
     1.0000   1.0000   1.0000   1.0000   1.0000   1.0000   1.0000   1.0000
     1.0000   1.0000   1.0000   1.0000   1.0000   1.0000   1.0000   1.0000
     1.0000   1.0000   1.0000   0.9439   0.9423  -0.0000  -0.0000  -0.0000
    -0.0000  -0.0000  -0.0000  -0.0000  -0.0000  -0.0000  -0.0000  -0.0000
    -0.0000  -0.0000

          k =-0.5000-0.5000-0.1657 (  9328 PWs)   bands (ev):

  -101.2842-101.2842-100.9211 -59.2585 -59.2584 -59.2529 -59.2529 -58.9120
   -58.8606 -58.8598 -58.6986 -58.6985 -30.7448 -16.0508 -16.0391 -11.2849
   -11.2752 -10.8944  -6.7996  -6.7897  -6.7893  -6.5335  -6.3383  -6.3157
    -1.9058  -1.9022  -1.8757  -1.8718  -1.5395  -1.3972   3.0788   3.6289
     4.7906   4.9592   5.0063   5.1735   5.5062   6.3089   6.3192   6.5047
     6.6432   6.6708   6.9840   6.9842   8.0157   8.1040   8.1046   8.1359
     8.3168   8.5218   8.7540   8.9457   9.1096   9.1288   9.2844   9.2931
     9.3077   9.3727   9.3742   9.7902   9.7909  12.1974  12.2657  12.2796
    12.2843  13.3568  14.1478  14.5985  15.3304  15.3453  15.3677  16.1883
    16.2804  16.2930

     occupation numbers 
     1.0000   1.0000   1.0000   1.0000   1.0000   1.0000   1.0000   1.0000
     1.0000   1.0000   1.0000   1.0000   1.0000   1.0000   1.0000   1.0000
     1.0000   1.0000   1.0000   1.0000   1.0000   1.0000   1.0000   1.0000
     1.0000   1.0000   1.0000   1.0000   1.0000   1.0000   1.0000   1.0000
     1.0000   1.0000   1.0000   1.0000   1.0000   1.0000   1.0000   1.0000
     1.0000   1.0000   1.0000   1.0000   1.0000   1.0000   1.0000   1.0000
     1.0000   1.0000   1.0000   1.0000   1.0000   1.0000   1.0000   1.0000
     1.0000   1.0000   1.0000   0.9495   0.9475  -0.0000  -0.0000  -0.0000
    -0.0000  -0.0000  -0.0000  -0.0000  -0.0000  -0.0000  -0.0000  -0.0000
    -0.0000  -0.0000

          k =-0.5000 0.0000 0.0000 (  9286 PWs)   bands (ev):

  -101.2842-101.2842-100.9211 -59.2584 -59.2584 -59.2529 -59.2529 -58.9120
   -58.8606 -58.8598 -58.6985 -58.6985 -30.7573 -16.1372 -16.1264 -11.3211
   -11.0847 -10.7834  -7.1568  -7.1198  -6.9800  -6.7084  -6.5042  -6.3741
    -1.5880  -1.3700  -1.1591  -1.0921  -0.8940  -0.8770   4.2457   4.4505
     5.0838   5.5920   5.8367   5.8594   6.0424   6.2674   6.3740   6.4295
     6.4704   6.6996   6.9129   7.0473   7.0877   7.1563   7.4606   7.7668
     7.7853   8.0988   8.1211   8.2838   8.3274   8.8339   8.8803   8.8983
     9.0921   9.1874   9.3490   9.3543   9.4524   9.5774  10.0291  11.5756
    13.7668  14.6461  15.0239  15.5148  15.7669  15.7922  15.8247  16.2505
    16.3745  16.6871

     occupation numbers 
     1.0000   1.0000   1.0000   1.0000   1.0000   1.0000   1.0000   1.0000
     1.0000   1.0000   1.0000   1.0000   1.0000   1.0000   1.0000   1.0000
     1.0000   1.0000   1.0000   1.0000   1.0000   1.0000   1.0000   1.0000
     1.0000   1.0000   1.0000   1.0000   1.0000   1.0000   1.0000   1.0000
     1.0000   1.0000   1.0000   1.0000   1.0000   1.0000   1.0000   1.0000
     1.0000   1.0000   1.0000   1.0000   1.0000   1.0000   1.0000   1.0000
     1.0000   1.0000   1.0000   1.0000   1.0000   1.0000   1.0000   1.0000
     1.0000   1.0000   1.0000   1.0000   1.0000   1.0035  -0.0318  -0.0000
    -0.0000  -0.0000  -0.0000  -0.0000  -0.0000  -0.0000  -0.0000  -0.0000
    -0.0000  -0.0000

          k =-0.5000 0.0000-0.0828 (  9292 PWs)   bands (ev):

  -101.2842-101.2842-100.9211 -59.2584 -59.2584 -59.2529 -59.2529 -58.9120
   -58.8606 -58.8598 -58.6985 -58.6985 -30.7573 -16.1376 -16.1260 -11.3211
   -11.0847 -10.7834  -7.2130  -7.0272  -6.9796  -6.7695  -6.4794  -6.3746
    -1.5780  -1.3808  -1.1593  -1.0920  -0.8949  -0.8761   4.2635   4.4314
     5.0833   5.5735   5.8357   5.8563   6.1399   6.2946   6.3578   6.4309
     6.4393   6.7281   6.7845   6.9275   7.0563   7.3939   7.3986   7.7691
     7.8094   8.0923   8.1211   8.3220   8.3326   8.8616   8.8750   8.8985
     9.0547   9.1844   9.3483   9.3540   9.4585   9.5673   9.9889  11.5948
    13.7892  14.5995  15.0241  15.5181  15.6185  15.7840  15.8279  16.2434
    16.3070  16.7735

     occupation numbers 
     1.0000   1.0000   1.0000   1.0000   1.0000   1.0000   1.0000   1.0000
     1.0000   1.0000   1.0000   1.0000   1.0000   1.0000   1.0000   1.0000
     1.0000   1.0000   1.0000   1.0000   1.0000   1.0000   1.0000   1.0000
     1.0000   1.0000   1.0000   1.0000   1.0000   1.0000   1.0000   1.0000
     1.0000   1.0000   1.0000   1.0000   1.0000   1.0000   1.0000   1.0000
     1.0000   1.0000   1.0000   1.0000   1.0000   1.0000   1.0000   1.0000
     1.0000   1.0000   1.0000   1.0000   1.0000   1.0000   1.0000   1.0000
     1.0000   1.0000   1.0000   1.0000   1.0000   1.0026   0.0128  -0.0000
    -0.0000  -0.0000  -0.0000  -0.0000  -0.0000  -0.0000  -0.0000  -0.0000
    -0.0000  -0.0000

          k =-0.5000 0.0000 0.1657 (  9280 PWs)   bands (ev):

  -101.2842-101.2842-100.9211 -59.2584 -59.2584 -59.2529 -59.2529 -58.9120
   -58.8606 -58.8598 -58.6985 -58.6985 -30.7573 -16.1380 -16.1256 -11.3211
   -11.0847 -10.7834  -7.2378  -6.9792  -6.9208  -6.8699  -6.4605  -6.3751
    -1.5667  -1.3929  -1.1594  -1.0919  -0.8957  -0.8752   4.2867   4.4068
     5.0829   5.5580   5.8346   5.8533   6.3010   6.3431   6.3465   6.3836
     6.4322   6.5479   6.7570   6.9413   7.0651   7.3452   7.4996   7.7530
     7.8405   8.0860   8.1210   8.3375   8.3624   8.8693   8.8986   8.9250
     8.9808   9.1814   9.3476   9.3538   9.4651   9.5572   9.9481  11.6144
    13.8114  14.5485  15.0243  15.5215  15.5561  15.7252  15.8312  16.2360
    16.2547  16.9030

     occupation numbers 
     1.0000   1.0000   1.0000   1.0000   1.0000   1.0000   1.0000   1.0000
     1.0000   1.0000   1.0000   1.0000   1.0000   1.0000   1.0000   1.0000
     1.0000   1.0000   1.0000   1.0000   1.0000   1.0000   1.0000   1.0000
     1.0000   1.0000   1.0000   1.0000   1.0000   1.0000   1.0000   1.0000
     1.0000   1.0000   1.0000   1.0000   1.0000   1.0000   1.0000   1.0000
     1.0000   1.0000   1.0000   1.0000   1.0000   1.0000   1.0000   1.0000
     1.0000   1.0000   1.0000   1.0000   1.0000   1.0000   1.0000   1.0000
     1.0000   1.0000   1.0000   1.0000   1.0001   1.0019   0.1362  -0.0000
    -0.0000  -0.0000  -0.0000  -0.0000  -0.0000  -0.0000  -0.0000  -0.0000
    -0.0000  -0.0000

     the Fermi energy is     9.8816 ev

!    total energy              =   -1638.73131966 Ry
     estimated scf accuracy    <          2.2E-09 Ry
     smearing contrib. (-TS)   =       0.00075079 Ry
     internal energy E=F+TS    =   -1638.73207044 Ry

     The total energy is F=E-TS. E is the sum of the following terms:
     one-electron contribution =   -1359.85479153 Ry
     hartree contribution      =     745.91452191 Ry
     xc contribution           =    -240.80995327 Ry
     ewald contribution        =    -783.98184755 Ry

     convergence has been achieved in  28 iterations

     Writing all to output data dir ./YBCO6/YBCO6.save/
 
     init_run     :      1.49s CPU      1.72s WALL (       1 calls)
     electrons    :     88.77s CPU     96.33s WALL (       1 calls)

     Called by init_run:
     wfcinit      :      0.87s CPU      0.94s WALL (       1 calls)
     wfcinit:atom :      0.01s CPU      0.01s WALL (      12 calls)
     wfcinit:wfcr :      0.79s CPU      0.86s WALL (      12 calls)
     potinit      :      0.00s CPU      0.01s WALL (       1 calls)
     hinit0       :      0.20s CPU      0.21s WALL (       1 calls)

     Called by electrons:
     c_bands      :     52.34s CPU     52.94s WALL (      28 calls)
     sum_band     :     23.90s CPU     27.68s WALL (      28 calls)
     v_of_rho     :      0.17s CPU      0.17s WALL (      29 calls)
     v_h          :      0.09s CPU      0.09s WALL (      29 calls)
     v_xc         :      0.08s CPU      0.08s WALL (      29 calls)
     newd         :     12.44s CPU     15.74s WALL (      29 calls)
     mix_rho      :      0.17s CPU      0.18s WALL (      28 calls)

     Called by c_bands:
     init_us_2    :      1.10s CPU      1.11s WALL (     684 calls)
     init_us_2:cp :      1.09s CPU      1.11s WALL (     684 calls)
     cegterg      :     46.41s CPU     46.95s WALL (     336 calls)

     Called by sum_band:
     sum_band:wei :      0.02s CPU      0.02s WALL (      28 calls)
     sum_band:loo :      8.82s CPU      8.92s WALL (      28 calls)
     sum_band:buf :      0.18s CPU      0.19s WALL (     336 calls)
     sum_band:ini :      0.48s CPU      0.49s WALL (     336 calls)
     sum_band:cal :      1.78s CPU      1.80s WALL (     336 calls)
     sum_band:bec :      0.02s CPU      0.02s WALL (     336 calls)
     addusdens    :     14.83s CPU     18.40s WALL (      28 calls)
                                        0.00s GPU  (      28 calls)
     addusd:skk   :      0.06s CPU      0.06s WALL (     112 calls)
                                        0.00s GPU  (     112 calls)

     Called by *egterg:
     cdiaghg      :      3.17s CPU      3.19s WALL (    1163 calls)
     cegterg:over :      3.19s CPU      3.24s WALL (     827 calls)
     cegterg:upda :      1.71s CPU      1.72s WALL (     827 calls)
     cegterg:last :      3.10s CPU      3.12s WALL (     511 calls)
     h_psi        :     29.70s CPU     30.20s WALL (    1175 calls)
     s_psi        :      3.89s CPU      3.90s WALL (    1175 calls)
     g_psi        :      0.12s CPU      0.12s WALL (     827 calls)

     Called by h_psi:
     h_psi:calbec :      4.03s CPU      4.13s WALL (    1175 calls)
     vloc_psi     :     21.32s CPU     21.69s WALL (    1175 calls)
     add_vuspsi   :      4.03s CPU      4.07s WALL (    1175 calls)

     General routines
     calbec       :      5.81s CPU      5.92s WALL (    1511 calls)
     fft          :      0.23s CPU      0.26s WALL (     172 calls)
     ffts         :      0.02s CPU      0.02s WALL (      57 calls)
     fftw         :     19.70s CPU     20.01s WALL (  131924 calls)
     interpolate  :      0.06s CPU      0.06s WALL (      29 calls)
 
     Parallel routines
 
     PWSCF        :   1m30.40s CPU   1m38.27s WALL

 
   This run was terminated on:   2:54: 3  31Dec2023            

=------------------------------------------------------------------------------=
   JOB DONE.
=------------------------------------------------------------------------------=
