
     Program PWSCF v.7.2 starts on 31Dec2023 at  2:54:37 

     This program is part of the open-source Quantum ESPRESSO suite
     for quantum simulation of materials; please cite
         "P. Giannozzi et al., J. Phys.:Condens. Matter 21 395502 (2009);
         "P. Giannozzi et al., J. Phys.:Condens. Matter 29 465901 (2017);
         "P. Giannozzi et al., J. Chem. Phys. 152 154105 (2020);
          URL http://www.quantum-espresso.org", 
     in publications or presentations arising from this work. More details at
     http://www.quantum-espresso.org/quote

     Parallel version (MPI), running on     4 processors

     MPI processes distributed on     1 nodes
     5917 MiB available memory on the printing compute node when the environment starts
 
     Waiting for input...
     Reading input from standard input

     Current dimensions of program PWSCF are:
     Max number of different atomic species (ntypx) = 10
     Max number of k-points (npk) =  40000
     Max angular momentum in pseudopotentials (lmaxx) =  4

     Atomic positions and unit cell read from directory:
     ./YBCO6/YBCO6.save/
 
 
     R & G space division:  proc/nbgrp/npool/nimage =       4
     Subspace diagonalization in iterative solution of the eigenvalue problem:
     a serial algorithm will be used

 
     Parallelization info
     --------------------
     sticks:   dense  smooth     PW     G-vecs:    dense   smooth      PW
     Min         577     258     73                62701    18582    2859
     Max         579     259     74                62707    18585    2868
     Sum        2313    1033    293               250811    74333   11447
 
     Using Slab Decomposition
 


     bravais-lattice index     =            6
     lattice parameter (alat)  =       7.3208  a.u.
     unit-cell volume          =    1184.0154 (a.u.)^3
     number of atoms/cell      =           12
     number of atomic types    =            4
     number of electrons       =       124.00
     number of Kohn-Sham states=           74
     kinetic-energy cutoff     =      60.0000  Ry
     charge density cutoff     =     540.0000  Ry
     Exchange-correlation= SLA  PZ   NOGX NOGC
                           (   1   1   0   0   0   0   0)

     celldm(1)=   7.320840  celldm(2)=   0.000000  celldm(3)=   3.017690
     celldm(4)=   0.000000  celldm(5)=   0.000000  celldm(6)=   0.000000

     crystal axes: (cart. coord. in units of alat)
               a(1) = (   1.000000   0.000000   0.000000 )  
               a(2) = (   0.000000   1.000000   0.000000 )  
               a(3) = (   0.000000   0.000000   3.017690 )  

     reciprocal axes: (cart. coord. in units 2 pi/alat)
               b(1) = (  1.000000  0.000000  0.000000 )  
               b(2) = (  0.000000  1.000000  0.000000 )  
               b(3) = (  0.000000  0.000000  0.331379 )  


     PseudoPot. # 1 for Y  read from file:
     ~/q-e/pseudo/gbrv_lda/y_lda_v1.4.uspp.F.UPF
     MD5 check sum: Not computed, couldn't open file
     Pseudo is Ultrasoft + core correction, Zval = 11.0
     Generated by new atomic code, or converted to UPF format
     Using radial grid of  885 points,  6 beta functions with: 
                l(1) =   0
                l(2) =   0
                l(3) =   1
                l(4) =   1
                l(5) =   2
                l(6) =   2
     Q(r) pseudized with  8 coefficients,  rinner =    1.200   1.200   1.200
                                                       1.200   1.200

     PseudoPot. # 2 for Ba read from file:
     ~/q-e/pseudo/gbrv_lda/ba_lda_v1.uspp.F.UPF
     MD5 check sum: Not computed, couldn't open file
     Pseudo is Ultrasoft + core correction, Zval = 10.0
     Generated by new atomic code, or converted to UPF format
     Using radial grid of  907 points,  7 beta functions with: 
                l(1) =   0
                l(2) =   0
                l(3) =   1
                l(4) =   1
                l(5) =   2
                l(6) =   2
                l(7) =   3
     Q(r) pseudized with  6 coefficients,  rinner =    1.700   1.700   1.700
                                                       1.700   1.700   1.700
                                                       1.700

     PseudoPot. # 3 for Cu read from file:
     ~/q-e/pseudo/gbrv_lda/cu_lda_v1.2.uspp.F.UPF
     MD5 check sum: Not computed, couldn't open file
     Pseudo is Ultrasoft + core correction, Zval = 19.0
     Generated by new atomic code, or converted to UPF format
     Using radial grid of  867 points,  6 beta functions with: 
                l(1) =   0
                l(2) =   0
                l(3) =   1
                l(4) =   1
                l(5) =   2
                l(6) =   2
     Q(r) pseudized with  8 coefficients,  rinner =    1.150   1.150   1.150
                                                       1.150   1.150

     PseudoPot. # 4 for O  read from file:
     ~/q-e/pseudo/gbrv_lda/o_lda_v1.2.uspp.F.UPF
     MD5 check sum: Not computed, couldn't open file
     Pseudo is Ultrasoft + core correction, Zval =  6.0
     Generated by new atomic code, or converted to UPF format
     Using radial grid of  737 points,  5 beta functions with: 
                l(1) =   0
                l(2) =   0
                l(3) =   1
                l(4) =   1
                l(5) =   2
     Q(r) pseudized with  8 coefficients,  rinner =    0.900   0.900   0.900
                                                       0.900   0.900

     atomic species   valence    mass     pseudopotential
     Y                11.00    88.90584     Y ( 1.00)
     Ba               10.00   137.32700     Ba( 1.00)
     Cu               19.00    63.54600     Cu( 1.00)
     O                 6.00    15.99900     O ( 1.00)

      8 Sym. Ops., with inversion, found


                                    s                        frac. trans.

      isym =  1     identity                                     

 cryst.   s( 1) = (     1          0          0      )
                  (     0          1          0      )
                  (     0          0          1      )

 cart.    s( 1) = (  1.0000000  0.0000000  0.0000000 )
                  (  0.0000000  1.0000000  0.0000000 )
                  (  0.0000000  0.0000000  1.0000000 )


      isym =  2     180 deg rotation - cart. axis [0,0,1]        

 cryst.   s( 2) = (    -1          0          0      )
                  (     0         -1          0      )
                  (     0          0          1      )

 cart.    s( 2) = ( -1.0000000  0.0000000  0.0000000 )
                  (  0.0000000 -1.0000000  0.0000000 )
                  (  0.0000000  0.0000000  1.0000000 )


      isym =  3     180 deg rotation - cart. axis [0,1,0]        

 cryst.   s( 3) = (    -1          0          0      )
                  (     0          1          0      )
                  (     0          0         -1      )

 cart.    s( 3) = ( -1.0000000  0.0000000  0.0000000 )
                  (  0.0000000  1.0000000  0.0000000 )
                  (  0.0000000  0.0000000 -1.0000000 )


      isym =  4     180 deg rotation - cart. axis [1,0,0]        

 cryst.   s( 4) = (     1          0          0      )
                  (     0         -1          0      )
                  (     0          0         -1      )

 cart.    s( 4) = (  1.0000000  0.0000000  0.0000000 )
                  (  0.0000000 -1.0000000  0.0000000 )
                  (  0.0000000  0.0000000 -1.0000000 )


      isym =  5     inversion                                    

 cryst.   s( 5) = (    -1          0          0      )
                  (     0         -1          0      )
                  (     0          0         -1      )

 cart.    s( 5) = ( -1.0000000  0.0000000  0.0000000 )
                  (  0.0000000 -1.0000000  0.0000000 )
                  (  0.0000000  0.0000000 -1.0000000 )


      isym =  6     inv. 180 deg rotation - cart. axis [0,0,1]   

 cryst.   s( 6) = (     1          0          0      )
                  (     0          1          0      )
                  (     0          0         -1      )

 cart.    s( 6) = (  1.0000000  0.0000000  0.0000000 )
                  (  0.0000000  1.0000000  0.0000000 )
                  (  0.0000000  0.0000000 -1.0000000 )


      isym =  7     inv. 180 deg rotation - cart. axis [0,1,0]   

 cryst.   s( 7) = (     1          0          0      )
                  (     0         -1          0      )
                  (     0          0          1      )

 cart.    s( 7) = (  1.0000000  0.0000000  0.0000000 )
                  (  0.0000000 -1.0000000  0.0000000 )
                  (  0.0000000  0.0000000  1.0000000 )


      isym =  8     inv. 180 deg rotation - cart. axis [1,0,0]   

 cryst.   s( 8) = (    -1          0          0      )
                  (     0          1          0      )
                  (     0          0          1      )

 cart.    s( 8) = ( -1.0000000  0.0000000  0.0000000 )
                  (  0.0000000  1.0000000  0.0000000 )
                  (  0.0000000  0.0000000  1.0000000 )


     point group D_2h (mmm) 
     there are  8 classes
     the character table:

       E     C2    C2'   C2''  i     s_v   s_v'  s_v''
A_g    1.00  1.00  1.00  1.00  1.00  1.00  1.00  1.00
B_1g   1.00  1.00 -1.00 -1.00  1.00  1.00 -1.00 -1.00
B_2g   1.00 -1.00  1.00 -1.00  1.00 -1.00  1.00 -1.00
B_3g   1.00 -1.00 -1.00  1.00  1.00 -1.00 -1.00  1.00
A_u    1.00  1.00  1.00  1.00 -1.00 -1.00 -1.00 -1.00
B_1u   1.00  1.00 -1.00 -1.00 -1.00 -1.00  1.00  1.00
B_2u   1.00 -1.00  1.00 -1.00 -1.00  1.00 -1.00  1.00
B_3u   1.00 -1.00 -1.00  1.00 -1.00  1.00  1.00 -1.00

     the symmetry operations in each class and the name of the first element:

     E        1
          identity                                               
     C2       2
          180 deg rotation - cart. axis [0,0,1]                  
     C2'      4
          180 deg rotation - cart. axis [1,0,0]                  
     C2''     3
          180 deg rotation - cart. axis [0,1,0]                  
     i        5
          inversion                                              
     s_v      6
          inv. 180 deg rotation - cart. axis [0,0,1]             
     s_v'     8
          inv. 180 deg rotation - cart. axis [1,0,0]             
     s_v''    7
          inv. 180 deg rotation - cart. axis [0,1,0]             

   Cartesian axes

     site n.     atom                  positions (alat units)
         1        Y      tau(   1) = (   0.5000000   0.5000000   1.5088451  )
         2        Ba     tau(   2) = (   0.5000000   0.5000000   0.5615829  )
         3        Ba     tau(   3) = (   0.5000000   0.5000000   2.4561072  )
         4        Cu     tau(   4) = (   0.0000000   0.0000000   0.0000000  )
         5        Cu     tau(   5) = (   0.0000000   0.0000000   1.0772132  )
         6        Cu     tau(   6) = (   0.0000000   0.0000000   1.9404769  )
         7        O      tau(   7) = (   0.5000000   0.0000000   1.1379760  )
         8        O      tau(   8) = (   0.5000000   0.0000000   1.8797141  )
         9        O      tau(   9) = (   0.0000000   0.5000000   1.1346923  )
        10        O      tau(  10) = (   0.0000000   0.5000000   1.8829979  )
        11        O      tau(  11) = (   0.0000000   0.0000000   0.4705240  )
        12        O      tau(  12) = (   0.0000000   0.0000000   2.5471662  )

   Crystallographic axes

     site n.     atom                  positions (cryst. coord.)
         1        Y      tau(   1) = (  0.5000000  0.5000000  0.5000000  )
         2        Ba     tau(   2) = (  0.5000000  0.5000000  0.1860969  )
         3        Ba     tau(   3) = (  0.5000000  0.5000000  0.8139031  )
         4        Cu     tau(   4) = (  0.0000000  0.0000000  0.0000000  )
         5        Cu     tau(   5) = (  0.0000000  0.0000000  0.3569661  )
         6        Cu     tau(   6) = (  0.0000000  0.0000000  0.6430339  )
         7        O      tau(   7) = (  0.5000000  0.0000000  0.3771017  )
         8        O      tau(   8) = (  0.5000000  0.0000000  0.6228983  )
         9        O      tau(   9) = (  0.0000000  0.5000000  0.3760135  )
        10        O      tau(  10) = (  0.0000000  0.5000000  0.6239865  )
        11        O      tau(  11) = (  0.0000000  0.0000000  0.1559219  )
        12        O      tau(  12) = (  0.0000000  0.0000000  0.8440781  )

     number of k points=    64 (tetrahedron method)
                       cart. coord. in units 2pi/alat
        k(    1) = (   0.0625000   0.0625000   0.0207112), wk =   0.0312500
        k(    2) = (   0.0625000   0.0625000   0.0621336), wk =   0.0312500
        k(    3) = (   0.0625000   0.0625000   0.1035560), wk =   0.0312500
        k(    4) = (   0.0625000   0.0625000   0.1449784), wk =   0.0312500
        k(    5) = (   0.0625000   0.1875000   0.0207112), wk =   0.0312500
        k(    6) = (   0.0625000   0.1875000   0.0621336), wk =   0.0312500
        k(    7) = (   0.0625000   0.1875000   0.1035560), wk =   0.0312500
        k(    8) = (   0.0625000   0.1875000   0.1449784), wk =   0.0312500
        k(    9) = (   0.0625000   0.3125000   0.0207112), wk =   0.0312500
        k(   10) = (   0.0625000   0.3125000   0.0621336), wk =   0.0312500
        k(   11) = (   0.0625000   0.3125000   0.1035560), wk =   0.0312500
        k(   12) = (   0.0625000   0.3125000   0.1449784), wk =   0.0312500
        k(   13) = (   0.0625000   0.4375000   0.0207112), wk =   0.0312500
        k(   14) = (   0.0625000   0.4375000   0.0621336), wk =   0.0312500
        k(   15) = (   0.0625000   0.4375000   0.1035560), wk =   0.0312500
        k(   16) = (   0.0625000   0.4375000   0.1449784), wk =   0.0312500
        k(   17) = (   0.1875000   0.1875000   0.0207112), wk =   0.0312500
        k(   18) = (   0.1875000   0.1875000   0.0621336), wk =   0.0312500
        k(   19) = (   0.1875000   0.1875000   0.1035560), wk =   0.0312500
        k(   20) = (   0.1875000   0.1875000   0.1449784), wk =   0.0312500
        k(   21) = (   0.1875000   0.3125000   0.0207112), wk =   0.0312500
        k(   22) = (   0.1875000   0.3125000   0.0621336), wk =   0.0312500
        k(   23) = (   0.1875000   0.3125000   0.1035560), wk =   0.0312500
        k(   24) = (   0.1875000   0.3125000   0.1449784), wk =   0.0312500
        k(   25) = (   0.1875000   0.4375000   0.0207112), wk =   0.0312500
        k(   26) = (   0.1875000   0.4375000   0.0621336), wk =   0.0312500
        k(   27) = (   0.1875000   0.4375000   0.1035560), wk =   0.0312500
        k(   28) = (   0.1875000   0.4375000   0.1449784), wk =   0.0312500
        k(   29) = (   0.3125000   0.3125000   0.0207112), wk =   0.0312500
        k(   30) = (   0.3125000   0.3125000   0.0621336), wk =   0.0312500
        k(   31) = (   0.3125000   0.3125000   0.1035560), wk =   0.0312500
        k(   32) = (   0.3125000   0.3125000   0.1449784), wk =   0.0312500
        k(   33) = (   0.3125000   0.4375000   0.0207112), wk =   0.0312500
        k(   34) = (   0.3125000   0.4375000   0.0621336), wk =   0.0312500
        k(   35) = (   0.3125000   0.4375000   0.1035560), wk =   0.0312500
        k(   36) = (   0.3125000   0.4375000   0.1449784), wk =   0.0312500
        k(   37) = (   0.4375000   0.4375000   0.0207112), wk =   0.0312500
        k(   38) = (   0.4375000   0.4375000   0.0621336), wk =   0.0312500
        k(   39) = (   0.4375000   0.4375000   0.1035560), wk =   0.0312500
        k(   40) = (   0.4375000   0.4375000   0.1449784), wk =   0.0312500
        k(   41) = (   0.1875000   0.0625000  -0.0207112), wk =   0.0312500
        k(   42) = (   0.1875000   0.0625000  -0.0621336), wk =   0.0312500
        k(   43) = (   0.1875000   0.0625000  -0.1035560), wk =   0.0312500
        k(   44) = (   0.1875000   0.0625000  -0.1449784), wk =   0.0312500
        k(   45) = (   0.3125000   0.0625000  -0.0207112), wk =   0.0312500
        k(   46) = (   0.3125000   0.0625000  -0.0621336), wk =   0.0312500
        k(   47) = (   0.3125000   0.0625000  -0.1035560), wk =   0.0312500
        k(   48) = (   0.3125000   0.0625000  -0.1449784), wk =   0.0312500
        k(   49) = (   0.4375000   0.0625000  -0.0207112), wk =   0.0312500
        k(   50) = (   0.4375000   0.0625000  -0.0621336), wk =   0.0312500
        k(   51) = (   0.4375000   0.0625000  -0.1035560), wk =   0.0312500
        k(   52) = (   0.4375000   0.0625000  -0.1449784), wk =   0.0312500
        k(   53) = (   0.3125000   0.1875000  -0.0207112), wk =   0.0312500
        k(   54) = (   0.3125000   0.1875000  -0.0621336), wk =   0.0312500
        k(   55) = (   0.3125000   0.1875000  -0.1035560), wk =   0.0312500
        k(   56) = (   0.3125000   0.1875000  -0.1449784), wk =   0.0312500
        k(   57) = (   0.4375000   0.1875000  -0.0207112), wk =   0.0312500
        k(   58) = (   0.4375000   0.1875000  -0.0621336), wk =   0.0312500
        k(   59) = (   0.4375000   0.1875000  -0.1035560), wk =   0.0312500
        k(   60) = (   0.4375000   0.1875000  -0.1449784), wk =   0.0312500
        k(   61) = (   0.4375000   0.3125000  -0.0207112), wk =   0.0312500
        k(   62) = (   0.4375000   0.3125000  -0.0621336), wk =   0.0312500
        k(   63) = (   0.4375000   0.3125000  -0.1035560), wk =   0.0312500
        k(   64) = (   0.4375000   0.3125000  -0.1449784), wk =   0.0312500

                       cryst. coord.
        k(    1) = (   0.0625000   0.0625000   0.0625000), wk =   0.0312500
        k(    2) = (   0.0625000   0.0625000   0.1875000), wk =   0.0312500
        k(    3) = (   0.0625000   0.0625000   0.3125000), wk =   0.0312500
        k(    4) = (   0.0625000   0.0625000   0.4375000), wk =   0.0312500
        k(    5) = (   0.0625000   0.1875000   0.0625000), wk =   0.0312500
        k(    6) = (   0.0625000   0.1875000   0.1875000), wk =   0.0312500
        k(    7) = (   0.0625000   0.1875000   0.3125000), wk =   0.0312500
        k(    8) = (   0.0625000   0.1875000   0.4375000), wk =   0.0312500
        k(    9) = (   0.0625000   0.3125000   0.0625000), wk =   0.0312500
        k(   10) = (   0.0625000   0.3125000   0.1875000), wk =   0.0312500
        k(   11) = (   0.0625000   0.3125000   0.3125000), wk =   0.0312500
        k(   12) = (   0.0625000   0.3125000   0.4375000), wk =   0.0312500
        k(   13) = (   0.0625000   0.4375000   0.0625000), wk =   0.0312500
        k(   14) = (   0.0625000   0.4375000   0.1875000), wk =   0.0312500
        k(   15) = (   0.0625000   0.4375000   0.3125000), wk =   0.0312500
        k(   16) = (   0.0625000   0.4375000   0.4375000), wk =   0.0312500
        k(   17) = (   0.1875000   0.1875000   0.0625000), wk =   0.0312500
        k(   18) = (   0.1875000   0.1875000   0.1875000), wk =   0.0312500
        k(   19) = (   0.1875000   0.1875000   0.3125000), wk =   0.0312500
        k(   20) = (   0.1875000   0.1875000   0.4375000), wk =   0.0312500
        k(   21) = (   0.1875000   0.3125000   0.0625000), wk =   0.0312500
        k(   22) = (   0.1875000   0.3125000   0.1875000), wk =   0.0312500
        k(   23) = (   0.1875000   0.3125000   0.3125000), wk =   0.0312500
        k(   24) = (   0.1875000   0.3125000   0.4375000), wk =   0.0312500
        k(   25) = (   0.1875000   0.4375000   0.0625000), wk =   0.0312500
        k(   26) = (   0.1875000   0.4375000   0.1875000), wk =   0.0312500
        k(   27) = (   0.1875000   0.4375000   0.3125000), wk =   0.0312500
        k(   28) = (   0.1875000   0.4375000   0.4375000), wk =   0.0312500
        k(   29) = (   0.3125000   0.3125000   0.0625000), wk =   0.0312500
        k(   30) = (   0.3125000   0.3125000   0.1875000), wk =   0.0312500
        k(   31) = (   0.3125000   0.3125000   0.3125000), wk =   0.0312500
        k(   32) = (   0.3125000   0.3125000   0.4375000), wk =   0.0312500
        k(   33) = (   0.3125000   0.4375000   0.0625000), wk =   0.0312500
        k(   34) = (   0.3125000   0.4375000   0.1875000), wk =   0.0312500
        k(   35) = (   0.3125000   0.4375000   0.3125000), wk =   0.0312500
        k(   36) = (   0.3125000   0.4375000   0.4375000), wk =   0.0312500
        k(   37) = (   0.4375000   0.4375000   0.0625000), wk =   0.0312500
        k(   38) = (   0.4375000   0.4375000   0.1875000), wk =   0.0312500
        k(   39) = (   0.4375000   0.4375000   0.3125000), wk =   0.0312500
        k(   40) = (   0.4375000   0.4375000   0.4375000), wk =   0.0312500
        k(   41) = (   0.1875000   0.0625000  -0.0625000), wk =   0.0312500
        k(   42) = (   0.1875000   0.0625000  -0.1875000), wk =   0.0312500
        k(   43) = (   0.1875000   0.0625000  -0.3125000), wk =   0.0312500
        k(   44) = (   0.1875000   0.0625000  -0.4375000), wk =   0.0312500
        k(   45) = (   0.3125000   0.0625000  -0.0625000), wk =   0.0312500
        k(   46) = (   0.3125000   0.0625000  -0.1875000), wk =   0.0312500
        k(   47) = (   0.3125000   0.0625000  -0.3125000), wk =   0.0312500
        k(   48) = (   0.3125000   0.0625000  -0.4375000), wk =   0.0312500
        k(   49) = (   0.4375000   0.0625000  -0.0625000), wk =   0.0312500
        k(   50) = (   0.4375000   0.0625000  -0.1875000), wk =   0.0312500
        k(   51) = (   0.4375000   0.0625000  -0.3125000), wk =   0.0312500
        k(   52) = (   0.4375000   0.0625000  -0.4375000), wk =   0.0312500
        k(   53) = (   0.3125000   0.1875000  -0.0625000), wk =   0.0312500
        k(   54) = (   0.3125000   0.1875000  -0.1875000), wk =   0.0312500
        k(   55) = (   0.3125000   0.1875000  -0.3125000), wk =   0.0312500
        k(   56) = (   0.3125000   0.1875000  -0.4375000), wk =   0.0312500
        k(   57) = (   0.4375000   0.1875000  -0.0625000), wk =   0.0312500
        k(   58) = (   0.4375000   0.1875000  -0.1875000), wk =   0.0312500
        k(   59) = (   0.4375000   0.1875000  -0.3125000), wk =   0.0312500
        k(   60) = (   0.4375000   0.1875000  -0.4375000), wk =   0.0312500
        k(   61) = (   0.4375000   0.3125000  -0.0625000), wk =   0.0312500
        k(   62) = (   0.4375000   0.3125000  -0.1875000), wk =   0.0312500
        k(   63) = (   0.4375000   0.3125000  -0.3125000), wk =   0.0312500
        k(   64) = (   0.4375000   0.3125000  -0.4375000), wk =   0.0312500

     Dense  grid:   250811 G-vectors     FFT dimensions: (  60,  60, 180)

     Smooth grid:    74333 G-vectors     FFT dimensions: (  40,  40, 120)

     Dynamical RAM for                 wfc:       2.62 MB

     Dynamical RAM for     wfc (w. buffer):       2.62 MB

     Dynamical RAM for           str. fact:       3.83 MB

     Dynamical RAM for           local pot:       0.00 MB

     Dynamical RAM for          nlocal pot:       7.09 MB

     Dynamical RAM for                qrad:      13.92 MB

     Dynamical RAM for          rho,v,vnew:       6.58 MB

     Dynamical RAM for           G-vectors:       3.73 MB

     Dynamical RAM for          h,s,v(r/c):       1.00 MB

     Dynamical RAM for          <psi|beta>:       0.23 MB

     Dynamical RAM for                 psi:       5.25 MB

     Dynamical RAM for                hpsi:       5.25 MB

     Dynamical RAM for                spsi:       5.25 MB

     Dynamical RAM for      wfcinit/wfcrot:       7.47 MB

     Dynamical RAM for           addusdens:     342.52 MB

     Estimated static dynamical RAM per process >      48.73 MB

     Estimated max dynamical RAM per process >     391.25 MB

     Estimated total dynamical RAM >       1.53 GB

     Check: negative core charge=   -0.000002

     The potential is recalculated from file :
     ./YBCO6/YBCO6.save/charge-density


     negative rho (up, down):  1.791E-01 0.000E+00
     Starting wfcs are  102 randomized atomic wfcs

     Band Structure Calculation
     Davidson diagonalization with overlap

     Computing kpt #:     1  of    64
     total cpu time spent up to now is        2.5 secs

     Computing kpt #:     2  of    64
     total cpu time spent up to now is        4.3 secs

     Computing kpt #:     3  of    64
     total cpu time spent up to now is        6.1 secs

     Computing kpt #:     4  of    64
     total cpu time spent up to now is        8.3 secs

     Computing kpt #:     5  of    64
     total cpu time spent up to now is       10.9 secs

     Computing kpt #:     6  of    64
     total cpu time spent up to now is       13.2 secs

     Computing kpt #:     7  of    64
     total cpu time spent up to now is       15.4 secs

     Computing kpt #:     8  of    64
     total cpu time spent up to now is       17.6 secs

     Computing kpt #:     9  of    64
     total cpu time spent up to now is       20.1 secs

     Computing kpt #:    10  of    64
     total cpu time spent up to now is       22.5 secs

     Computing kpt #:    11  of    64
     c_bands:  1 eigenvalues not converged
     total cpu time spent up to now is       25.6 secs

     Computing kpt #:    12  of    64
     total cpu time spent up to now is       28.0 secs

     Computing kpt #:    13  of    64
     total cpu time spent up to now is       30.5 secs

     Computing kpt #:    14  of    64
     total cpu time spent up to now is       33.2 secs

     Computing kpt #:    15  of    64
     total cpu time spent up to now is       35.6 secs

     Computing kpt #:    16  of    64
     total cpu time spent up to now is       37.7 secs

     Computing kpt #:    17  of    64
     total cpu time spent up to now is       40.2 secs

     Computing kpt #:    18  of    64
     total cpu time spent up to now is       42.6 secs

     Computing kpt #:    19  of    64
     total cpu time spent up to now is       45.0 secs

     Computing kpt #:    20  of    64
     total cpu time spent up to now is       47.1 secs

     Computing kpt #:    21  of    64
     total cpu time spent up to now is       49.6 secs

     Computing kpt #:    22  of    64
     total cpu time spent up to now is       52.1 secs

     Computing kpt #:    23  of    64
     total cpu time spent up to now is       54.5 secs

     Computing kpt #:    24  of    64
     total cpu time spent up to now is       56.9 secs

     Computing kpt #:    25  of    64
     total cpu time spent up to now is       60.0 secs

     Computing kpt #:    26  of    64
     total cpu time spent up to now is       62.6 secs

     Computing kpt #:    27  of    64
     total cpu time spent up to now is       65.3 secs

     Computing kpt #:    28  of    64
     total cpu time spent up to now is       67.8 secs

     Computing kpt #:    29  of    64
     total cpu time spent up to now is       70.9 secs

     Computing kpt #:    30  of    64
     total cpu time spent up to now is       73.8 secs

     Computing kpt #:    31  of    64
     total cpu time spent up to now is       76.2 secs

     Computing kpt #:    32  of    64
     total cpu time spent up to now is       78.6 secs

     Computing kpt #:    33  of    64
     total cpu time spent up to now is       81.0 secs

     Computing kpt #:    34  of    64
     total cpu time spent up to now is       83.4 secs

     Computing kpt #:    35  of    64
     total cpu time spent up to now is       85.8 secs

     Computing kpt #:    36  of    64
     total cpu time spent up to now is       88.0 secs

     Computing kpt #:    37  of    64
     total cpu time spent up to now is       90.2 secs

     Computing kpt #:    38  of    64
     total cpu time spent up to now is       92.2 secs

     Computing kpt #:    39  of    64
     total cpu time spent up to now is       94.1 secs

     Computing kpt #:    40  of    64
     total cpu time spent up to now is       96.0 secs

     Computing kpt #:    41  of    64
     total cpu time spent up to now is       98.5 secs

     Computing kpt #:    42  of    64
     total cpu time spent up to now is      100.7 secs

     Computing kpt #:    43  of    64
     total cpu time spent up to now is      102.9 secs

     Computing kpt #:    44  of    64
     total cpu time spent up to now is      105.2 secs

     Computing kpt #:    45  of    64
     total cpu time spent up to now is      107.7 secs

     Computing kpt #:    46  of    64
     total cpu time spent up to now is      110.4 secs

     Computing kpt #:    47  of    64
     c_bands:  1 eigenvalues not converged
     total cpu time spent up to now is      113.3 secs

     Computing kpt #:    48  of    64
     total cpu time spent up to now is      115.8 secs

     Computing kpt #:    49  of    64
     total cpu time spent up to now is      118.2 secs

     Computing kpt #:    50  of    64
     total cpu time spent up to now is      120.9 secs

     Computing kpt #:    51  of    64
     total cpu time spent up to now is      123.3 secs

     Computing kpt #:    52  of    64
     total cpu time spent up to now is      125.7 secs

     Computing kpt #:    53  of    64
     total cpu time spent up to now is      128.2 secs

     Computing kpt #:    54  of    64
     total cpu time spent up to now is      130.6 secs

     Computing kpt #:    55  of    64
     total cpu time spent up to now is      133.0 secs

     Computing kpt #:    56  of    64
     total cpu time spent up to now is      135.3 secs

     Computing kpt #:    57  of    64
     total cpu time spent up to now is      138.4 secs

     Computing kpt #:    58  of    64
     total cpu time spent up to now is      141.1 secs

     Computing kpt #:    59  of    64
     total cpu time spent up to now is      143.8 secs

     Computing kpt #:    60  of    64
     total cpu time spent up to now is      146.5 secs

     Computing kpt #:    61  of    64
     total cpu time spent up to now is      149.0 secs

     Computing kpt #:    62  of    64
     total cpu time spent up to now is      151.4 secs

     Computing kpt #:    63  of    64
     total cpu time spent up to now is      153.8 secs

     Computing kpt #:    64  of    64
     total cpu time spent up to now is      155.9 secs

     ethr =  8.06E-12,  avg # of iterations = 72.0

     total cpu time spent up to now is      156.0 secs

     End of band structure calculation

          k = 0.0625 0.0625 0.0207 (  9255 PWs)   bands (ev):

  -101.2846-101.2845-100.9209 -59.2588 -59.2587 -59.2533 -59.2532 -58.9117
   -58.8610 -58.8602 -58.6983 -58.6981 -30.7692 -16.2417 -16.2291 -11.2855
   -10.8290 -10.8234  -7.7277  -6.8892  -6.7396  -6.5296  -6.4674  -6.3009
    -1.6427  -1.3844  -1.1440  -1.1290  -1.0684  -1.0496   5.0165   5.2824
     5.3345   5.4586   5.6147   5.6225   6.4323   6.5598   6.8684   6.9461
     7.2809   7.3967   7.5273   7.5991   7.6073   7.7851   7.8220   7.9365
     7.9964   8.0190   8.1569   8.1909   8.1975   8.3076   8.4294   8.4781
     8.5491   8.8115   9.1610   9.1868   9.3050   9.6358   9.7208  12.3103
    13.0513  13.1030  13.3824  14.3884  14.9297  15.0176  15.1847  15.2452
    15.7621  16.0888

     occupation numbers 
     1.0000   1.0000   1.0000   1.0000   1.0000   1.0000   1.0000   1.0000
     1.0000   1.0000   1.0000   1.0000   1.0000   1.0000   1.0000   1.0000
     1.0000   1.0000   1.0000   1.0000   1.0000   1.0000   1.0000   1.0000
     1.0000   1.0000   1.0000   1.0000   1.0000   1.0000   1.0000   1.0000
     1.0000   1.0000   1.0000   1.0000   1.0000   1.0000   1.0000   1.0000
     1.0000   1.0000   1.0000   1.0000   1.0000   1.0000   1.0000   1.0000
     1.0000   1.0000   1.0000   1.0000   1.0000   1.0000   1.0000   1.0000
     1.0000   1.0000   1.0000   1.0000   1.0000   1.0000   1.0000   0.0000
     0.0000   0.0000   0.0000   0.0000   0.0000   0.0000   0.0000   0.0000
     0.0000   0.0000

          k = 0.0625 0.0625 0.0621 (  9254 PWs)   bands (ev):

  -101.2846-101.2845-100.9209 -59.2588 -59.2587 -59.2533 -59.2532 -58.9117
   -58.8610 -58.8602 -58.6983 -58.6981 -30.7692 -16.2420 -16.2288 -11.2855
   -10.8290 -10.8234  -7.7273  -6.8927  -6.7342  -6.5296  -6.4697  -6.3009
    -1.6353  -1.3923  -1.1441  -1.1289  -1.0687  -1.0493   5.0243   5.2857
     5.3345   5.4466   5.6160   5.6270   6.4386   6.5602   6.8707   6.9461
     7.2313   7.4019   7.4847   7.6058   7.6675   7.7939   7.8312   7.9339
     7.9884   7.9992   8.1347   8.1744   8.1976   8.3532   8.4631   8.5186
     8.5439   8.7959   9.1198   9.1661   9.3157   9.6348   9.7224  12.3703
    13.0690  13.0785  13.3523  14.3370  14.9343  14.9446  15.2182  15.2368
    15.6138  16.3195

     occupation numbers 
     1.0000   1.0000   1.0000   1.0000   1.0000   1.0000   1.0000   1.0000
     1.0000   1.0000   1.0000   1.0000   1.0000   1.0000   1.0000   1.0000
     1.0000   1.0000   1.0000   1.0000   1.0000   1.0000   1.0000   1.0000
     1.0000   1.0000   1.0000   1.0000   1.0000   1.0000   1.0000   1.0000
     1.0000   1.0000   1.0000   1.0000   1.0000   1.0000   1.0000   1.0000
     1.0000   1.0000   1.0000   1.0000   1.0000   1.0000   1.0000   1.0000
     1.0000   1.0000   1.0000   1.0000   1.0000   1.0000   1.0000   1.0000
     1.0000   1.0000   1.0000   1.0000   1.0000   1.0000   1.0000   0.0000
     0.0000   0.0000   0.0000   0.0000   0.0000   0.0000   0.0000   0.0000
     0.0000   0.0000

          k = 0.0625 0.0625 0.1036 (  9257 PWs)   bands (ev):

  -101.2846-101.2845-100.9209 -59.2588 -59.2587 -59.2533 -59.2532 -58.9117
   -58.8610 -58.8602 -58.6983 -58.6981 -30.7692 -16.2424 -16.2283 -11.2856
   -10.8290 -10.8234  -7.7269  -6.8973  -6.7268  -6.5296  -6.4731  -6.3009
    -1.6239  -1.4045  -1.1443  -1.1287  -1.0691  -1.0487   5.0355   5.2938
     5.3344   5.4250   5.6166   5.6355   6.4490   6.5608   6.8757   6.9461
     7.1635   7.4068   7.4628   7.6037   7.7182   7.8167   7.8484   7.9286
     7.9685   7.9696   8.1117   8.1640   8.1978   8.4101   8.5076   8.5310
     8.5876   8.7693   9.0517   9.1397   9.3273   9.6336   9.7246  12.4734
    13.0102  13.1143  13.2995  14.3132  14.7573  14.9401  15.2323  15.3005
    15.5443  16.4848

     occupation numbers 
     1.0000   1.0000   1.0000   1.0000   1.0000   1.0000   1.0000   1.0000
     1.0000   1.0000   1.0000   1.0000   1.0000   1.0000   1.0000   1.0000
     1.0000   1.0000   1.0000   1.0000   1.0000   1.0000   1.0000   1.0000
     1.0000   1.0000   1.0000   1.0000   1.0000   1.0000   1.0000   1.0000
     1.0000   1.0000   1.0000   1.0000   1.0000   1.0000   1.0000   1.0000
     1.0000   1.0000   1.0000   1.0000   1.0000   1.0000   1.0000   1.0000
     1.0000   1.0000   1.0000   1.0000   1.0000   1.0000   1.0000   1.0000
     1.0000   1.0000   1.0000   1.0000   1.0000   1.0000   1.0000   0.0000
     0.0000   0.0000   0.0000   0.0000   0.0000   0.0000   0.0000   0.0000
     0.0000   0.0000

          k = 0.0625 0.0625 0.1450 (  9257 PWs)   bands (ev):

  -101.2846-101.2845-100.9209 -59.2588 -59.2587 -59.2533 -59.2532 -58.9117
   -58.8610 -58.8602 -58.6983 -58.6981 -30.7692 -16.2427 -16.2281 -11.2856
   -10.8290 -10.8234  -7.7265  -6.9005  -6.7218  -6.5296  -6.4755  -6.3009
    -1.6150  -1.4140  -1.1445  -1.1286  -1.0694  -1.0484   5.0435   5.3039
     5.3343   5.4048   5.6169   5.6422   6.4576   6.5612   6.8817   6.9461
     7.1151   7.4095   7.4540   7.6023   7.7395   7.8491   7.8685   7.9179
     7.9429   7.9476   8.1002   8.1602   8.1979   8.4617   8.5002   8.5503
     8.6487   8.7440   8.9900   9.1222   9.3340   9.6327   9.7262  12.5750
    12.9318  13.1701  13.2353  14.3528  14.5825  14.9437  15.2322  15.3414
    15.5335  16.5644

     occupation numbers 
     1.0000   1.0000   1.0000   1.0000   1.0000   1.0000   1.0000   1.0000
     1.0000   1.0000   1.0000   1.0000   1.0000   1.0000   1.0000   1.0000
     1.0000   1.0000   1.0000   1.0000   1.0000   1.0000   1.0000   1.0000
     1.0000   1.0000   1.0000   1.0000   1.0000   1.0000   1.0000   1.0000
     1.0000   1.0000   1.0000   1.0000   1.0000   1.0000   1.0000   1.0000
     1.0000   1.0000   1.0000   1.0000   1.0000   1.0000   1.0000   1.0000
     1.0000   1.0000   1.0000   1.0000   1.0000   1.0000   1.0000   1.0000
     1.0000   1.0000   1.0000   1.0000   1.0000   1.0000   1.0000   0.0000
     0.0000   0.0000   0.0000   0.0000   0.0000   0.0000   0.0000   0.0000
     0.0000   0.0000

          k = 0.0625 0.1875 0.0207 (  9257 PWs)   bands (ev):

  -101.2846-101.2845-100.9209 -59.2588 -59.2588 -59.2533 -59.2532 -58.9117
   -58.8610 -58.8602 -58.6983 -58.6981 -30.7657 -16.2119 -16.1998 -11.2297
   -10.9835 -10.8216  -7.5322  -6.9110  -6.8226  -6.5472  -6.4917  -6.3667
    -1.6279  -1.3911  -1.1929  -1.1638  -1.0012  -0.9728   4.8669   5.0836
     5.2614   5.4130   5.6060   5.6584   6.3359   6.5149   6.6722   6.8354
     6.9569   6.9976   7.3076   7.4437   7.6677   7.6915   7.7248   7.7420
     7.9644   8.0513   8.1741   8.1988   8.2481   8.2624   8.5698   8.5904
     8.6281   8.9228   9.2038   9.4607   9.5322   9.6020   9.8340  12.4342
    13.3043  13.5543  13.9399  14.3287  14.9546  15.1461  15.4613  15.5964
    16.1202  16.2621

     occupation numbers 
     1.0000   1.0000   1.0000   1.0000   1.0000   1.0000   1.0000   1.0000
     1.0000   1.0000   1.0000   1.0000   1.0000   1.0000   1.0000   1.0000
     1.0000   1.0000   1.0000   1.0000   1.0000   1.0000   1.0000   1.0000
     1.0000   1.0000   1.0000   1.0000   1.0000   1.0000   1.0000   1.0000
     1.0000   1.0000   1.0000   1.0000   1.0000   1.0000   1.0000   1.0000
     1.0000   1.0000   1.0000   1.0000   1.0000   1.0000   1.0000   1.0000
     1.0000   1.0000   1.0000   1.0000   1.0000   1.0000   1.0000   1.0000
     1.0000   1.0000   1.0000   1.0000   1.0000   1.0190   1.0207   0.0000
     0.0000   0.0000   0.0000   0.0000   0.0000   0.0000   0.0000   0.0000
     0.0000   0.0000

          k = 0.0625 0.1875 0.0621 (  9263 PWs)   bands (ev):

  -101.2846-101.2845-100.9209 -59.2588 -59.2588 -59.2533 -59.2532 -58.9117
   -58.8610 -58.8602 -58.6983 -58.6981 -30.7657 -16.2122 -16.1995 -11.2297
   -10.9835 -10.8216  -7.5316  -6.9237  -6.8047  -6.5570  -6.4873  -6.3671
    -1.6226  -1.3967  -1.1921  -1.1645  -1.0009  -0.9730   4.8813   5.0761
     5.2497   5.4132   5.6035   5.6628   6.3572   6.5160   6.6799   6.8323
     6.9386   7.0070   7.2021   7.5079   7.6392   7.6868   7.7511   7.7948
     7.9634   8.0399   8.1747   8.1942   8.2425   8.2633   8.5720   8.6307
     8.6367   8.9141   9.1643   9.4539   9.5125   9.6293   9.8214  12.4547
    13.3279  13.5587  13.9078  14.3255  14.9371  15.1429  15.3208  15.6500
    16.0471  16.2938

     occupation numbers 
     1.0000   1.0000   1.0000   1.0000   1.0000   1.0000   1.0000   1.0000
     1.0000   1.0000   1.0000   1.0000   1.0000   1.0000   1.0000   1.0000
     1.0000   1.0000   1.0000   1.0000   1.0000   1.0000   1.0000   1.0000
     1.0000   1.0000   1.0000   1.0000   1.0000   1.0000   1.0000   1.0000
     1.0000   1.0000   1.0000   1.0000   1.0000   1.0000   1.0000   1.0000
     1.0000   1.0000   1.0000   1.0000   1.0000   1.0000   1.0000   1.0000
     1.0000   1.0000   1.0000   1.0000   1.0000   1.0000   1.0000   1.0000
     1.0000   1.0000   1.0000   1.0000   1.0000   1.0191   1.0215   0.0000
     0.0000   0.0000   0.0000   0.0000   0.0000   0.0000   0.0000   0.0000
     0.0000   0.0000

          k = 0.0625 0.1875 0.1036 (  9260 PWs)   bands (ev):

  -101.2846-101.2845-100.9209 -59.2588 -59.2588 -59.2533 -59.2532 -58.9117
   -58.8610 -58.8602 -58.6983 -58.6981 -30.7657 -16.2126 -16.1991 -11.2298
   -10.9835 -10.8216  -7.5309  -6.9372  -6.7830  -6.5704  -6.4825  -6.3676
    -1.6146  -1.4053  -1.1909  -1.1657  -1.0006  -0.9732   4.9055   5.0621
     5.2328   5.4134   5.6003   5.6686   6.3911   6.5189   6.6956   6.8228
     6.9084   7.0166   7.1107   7.5335   7.6187   7.7039   7.7785   7.8513
     7.9596   8.0233   8.1753   8.1850   8.2336   8.2656   8.5846   8.6373
     8.7069   8.8961   9.0989   9.4419   9.4942   9.6630   9.8006  12.4841
    13.3645  13.5649  13.8626  14.3198  14.8898  15.1408  15.2070  15.7078
    15.9694  16.3265

     occupation numbers 
     1.0000   1.0000   1.0000   1.0000   1.0000   1.0000   1.0000   1.0000
     1.0000   1.0000   1.0000   1.0000   1.0000   1.0000   1.0000   1.0000
     1.0000   1.0000   1.0000   1.0000   1.0000   1.0000   1.0000   1.0000
     1.0000   1.0000   1.0000   1.0000   1.0000   1.0000   1.0000   1.0000
     1.0000   1.0000   1.0000   1.0000   1.0000   1.0000   1.0000   1.0000
     1.0000   1.0000   1.0000   1.0000   1.0000   1.0000   1.0000   1.0000
     1.0000   1.0000   1.0000   1.0000   1.0000   1.0000   1.0000   1.0000
     1.0000   1.0000   1.0000   1.0000   1.0000   1.0192   1.0227   0.0000
     0.0000   0.0000   0.0000   0.0000   0.0000   0.0000   0.0000   0.0000
     0.0000   0.0000

          k = 0.0625 0.1875 0.1450 (  9274 PWs)   bands (ev):

  -101.2846-101.2845-100.9209 -59.2588 -59.2588 -59.2533 -59.2532 -58.9117
   -58.8610 -58.8602 -58.6983 -58.6981 -30.7657 -16.2128 -16.1989 -11.2298
   -10.9835 -10.8216  -7.5304  -6.9451  -6.7685  -6.5801  -6.4796  -6.3680
    -1.6086  -1.4117  -1.1900  -1.1666  -1.0004  -0.9734   4.9276   5.0474
     5.2208   5.4135   5.5981   5.6726   6.4181   6.5229   6.7188   6.7995
     6.8821   7.0228   7.0635   7.5364   7.6081   7.7239   7.7961   7.8908
     7.9526   8.0109   8.1741   8.1783   8.2267   8.2674   8.5943   8.6432
     8.7903   8.8612   9.0400   9.4315   9.4850   9.6894   9.7810  12.5053
    13.3934  13.5691  13.8294  14.3173  14.8321  15.1439  15.1647  15.7772
    15.8738  16.3705

     occupation numbers 
     1.0000   1.0000   1.0000   1.0000   1.0000   1.0000   1.0000   1.0000
     1.0000   1.0000   1.0000   1.0000   1.0000   1.0000   1.0000   1.0000
     1.0000   1.0000   1.0000   1.0000   1.0000   1.0000   1.0000   1.0000
     1.0000   1.0000   1.0000   1.0000   1.0000   1.0000   1.0000   1.0000
     1.0000   1.0000   1.0000   1.0000   1.0000   1.0000   1.0000   1.0000
     1.0000   1.0000   1.0000   1.0000   1.0000   1.0000   1.0000   1.0000
     1.0000   1.0000   1.0000   1.0000   1.0000   1.0000   1.0000   1.0000
     1.0000   1.0000   1.0000   1.0000   1.0000   1.0192   1.0238   0.0000
     0.0000   0.0000   0.0000   0.0000   0.0000   0.0000   0.0000   0.0000
     0.0000   0.0000

          k = 0.0625 0.3125 0.0207 (  9289 PWs)   bands (ev):

  -101.2846-101.2846-100.9209 -59.2588 -59.2588 -59.2533 -59.2532 -58.9117
   -58.8610 -58.8602 -58.6984 -58.6981 -30.7609 -16.1691 -16.1577 -11.1834
   -11.1465 -10.8140  -7.2588  -7.0131  -6.9394  -6.6383  -6.4593  -6.4118
    -1.6048  -1.3890  -1.2017  -1.1493  -0.9586  -0.9301   4.5049   4.7255
     5.1279   5.5697   5.6644   5.6835   6.1845   6.4383   6.4765   6.5896
     6.5988   6.7008   7.1340   7.2479   7.4100   7.4929   7.5685   7.7551
     7.8440   8.0680   8.1427   8.2114   8.2748   8.4613   8.7487   8.7826
     9.0882   9.1597   9.2273   9.3284   9.4831   9.6944  10.0932  12.0851
    13.6838  14.0560  14.7626  14.8795  15.0365  15.4736  15.7673  15.8969
    16.3940  16.4708

     occupation numbers 
     1.0000   1.0000   1.0000   1.0000   1.0000   1.0000   1.0000   1.0000
     1.0000   1.0000   1.0000   1.0000   1.0000   1.0000   1.0000   1.0000
     1.0000   1.0000   1.0000   1.0000   1.0000   1.0000   1.0000   1.0000
     1.0000   1.0000   1.0000   1.0000   1.0000   1.0000   1.0000   1.0000
     1.0000   1.0000   1.0000   1.0000   1.0000   1.0000   1.0000   1.0000
     1.0000   1.0000   1.0000   1.0000   1.0000   1.0000   1.0000   1.0000
     1.0000   1.0000   1.0000   1.0000   1.0000   1.0000   1.0000   1.0000
     1.0000   1.0000   1.0000   1.0000   1.0000   1.0402   0.9214   0.0000
     0.0000   0.0000   0.0000   0.0000   0.0000   0.0000   0.0000   0.0000
     0.0000   0.0000

          k = 0.0625 0.3125 0.0621 (  9287 PWs)   bands (ev):

  -101.2846-101.2846-100.9209 -59.2588 -59.2588 -59.2533 -59.2532 -58.9117
   -58.8610 -58.8602 -58.6984 -58.6981 -30.7609 -16.1693 -16.1574 -11.1834
   -11.1465 -10.8140  -7.2564  -7.0405  -6.9013  -6.6578  -6.4525  -6.4122
    -1.6010  -1.3928  -1.2003  -1.1508  -0.9584  -0.9304   4.5188   4.7109
     5.1276   5.5695   5.6591   5.6780   6.2270   6.4368   6.4867   6.5790
     6.6068   6.6978   6.9929   7.3016   7.4430   7.4926   7.6072   7.7040
     7.8824   8.0594   8.1437   8.2242   8.2772   8.4682   8.7642   8.7931
     9.0806   9.1570   9.2106   9.3204   9.4701   9.7063  10.0739  12.0930
    13.6989  14.0540  14.7563  14.8629  15.0309  15.4673  15.6891  15.8557
    16.3619  16.6135

     occupation numbers 
     1.0000   1.0000   1.0000   1.0000   1.0000   1.0000   1.0000   1.0000
     1.0000   1.0000   1.0000   1.0000   1.0000   1.0000   1.0000   1.0000
     1.0000   1.0000   1.0000   1.0000   1.0000   1.0000   1.0000   1.0000
     1.0000   1.0000   1.0000   1.0000   1.0000   1.0000   1.0000   1.0000
     1.0000   1.0000   1.0000   1.0000   1.0000   1.0000   1.0000   1.0000
     1.0000   1.0000   1.0000   1.0000   1.0000   1.0000   1.0000   1.0000
     1.0000   1.0000   1.0000   1.0000   1.0000   1.0000   1.0000   1.0000
     1.0000   1.0000   1.0000   1.0000   1.0000   1.0396   0.9320   0.0000
     0.0000   0.0000   0.0000   0.0000   0.0000   0.0000   0.0000   0.0000
     0.0000   0.0000

          k = 0.0625 0.3125 0.1036 (  9272 PWs)   bands (ev):

  -101.2846-101.2846-100.9209 -59.2588 -59.2588 -59.2533 -59.2532 -58.9117
   -58.8610 -58.8602 -58.6984 -58.6981 -30.7609 -16.1697 -16.1571 -11.1834
   -11.1465 -10.8140  -7.2527  -7.0651  -6.8563  -6.6899  -6.4440  -6.4127
    -1.5954  -1.3986  -1.1983  -1.1530  -0.9580  -0.9308   4.5434   4.6853
     5.1271   5.5694   5.6488   5.6740   6.2973   6.4430   6.4996   6.5633
     6.6143   6.6875   6.8579   7.3151   7.4792   7.4980   7.6462   7.6647
     7.9157   8.0472   8.1447   8.2414   8.2805   8.4763   8.7802   8.8298
     9.0514   9.1563   9.1890   9.3076   9.4525   9.7237  10.0461  12.1040
    13.7206  14.0504  14.7491  14.8373  15.0224  15.4480  15.6409  15.7831
    16.3376  16.7711

     occupation numbers 
     1.0000   1.0000   1.0000   1.0000   1.0000   1.0000   1.0000   1.0000
     1.0000   1.0000   1.0000   1.0000   1.0000   1.0000   1.0000   1.0000
     1.0000   1.0000   1.0000   1.0000   1.0000   1.0000   1.0000   1.0000
     1.0000   1.0000   1.0000   1.0000   1.0000   1.0000   1.0000   1.0000
     1.0000   1.0000   1.0000   1.0000   1.0000   1.0000   1.0000   1.0000
     1.0000   1.0000   1.0000   1.0000   1.0000   1.0000   1.0000   1.0000
     1.0000   1.0000   1.0000   1.0000   1.0000   1.0000   1.0000   1.0000
     1.0000   1.0000   1.0000   1.0000   1.0000   1.0386   0.9457   0.0000
     0.0000   0.0000   0.0000   0.0000   0.0000   0.0000   0.0000   0.0000
     0.0000   0.0000

          k = 0.0625 0.3125 0.1450 (  9281 PWs)   bands (ev):

  -101.2846-101.2846-100.9209 -59.2588 -59.2588 -59.2533 -59.2532 -58.9117
   -58.8610 -58.8602 -58.6984 -58.6981 -30.7609 -16.1699 -16.1568 -11.1834
   -11.1466 -10.8140  -7.2499  -7.0789  -6.8179  -6.7223  -6.4385  -6.4132
    -1.5913  -1.4028  -1.1968  -1.1547  -0.9578  -0.9311   4.5686   4.6594
     5.1268   5.5695   5.6408   5.6725   6.3558   6.4764   6.5094   6.5343
     6.6233   6.6526   6.7800   7.3164   7.4960   7.5164   7.6024   7.7014
     7.9349   8.0380   8.1452   8.2529   8.2829   8.4807   8.7869   8.8914
     8.9960   9.1614   9.1741   9.2972   9.4406   9.7367  10.0259  12.1117
    13.7364  14.0472  14.7462  14.8167  15.0160  15.4263  15.6540  15.7088
    16.3263  16.8208

     occupation numbers 
     1.0000   1.0000   1.0000   1.0000   1.0000   1.0000   1.0000   1.0000
     1.0000   1.0000   1.0000   1.0000   1.0000   1.0000   1.0000   1.0000
     1.0000   1.0000   1.0000   1.0000   1.0000   1.0000   1.0000   1.0000
     1.0000   1.0000   1.0000   1.0000   1.0000   1.0000   1.0000   1.0000
     1.0000   1.0000   1.0000   1.0000   1.0000   1.0000   1.0000   1.0000
     1.0000   1.0000   1.0000   1.0000   1.0000   1.0000   1.0000   1.0000
     1.0000   1.0000   1.0000   1.0000   1.0000   1.0000   1.0000   1.0000
     1.0000   1.0000   1.0000   1.0000   1.0000   1.0377   0.9548   0.0000
     0.0000   0.0000   0.0000   0.0000   0.0000   0.0000   0.0000   0.0000
     0.0000   0.0000

          k = 0.0625 0.4375 0.0207 (  9291 PWs)   bands (ev):

  -101.2846-101.2846-100.9209 -59.2589 -59.2588 -59.2533 -59.2532 -58.9117
   -58.8610 -58.8602 -58.6984 -58.6981 -30.7574 -16.1382 -16.1274 -11.3120
   -11.0842 -10.8086  -7.1310  -7.0900  -6.9716  -6.6973  -6.4695  -6.4102
    -1.5853  -1.3724  -1.1930  -1.1286  -0.9405  -0.9195   4.2348   4.4544
     5.0878   5.6383   5.7378   5.7555   6.1061   6.2041   6.2536   6.4323
     6.4964   6.6558   7.0329   7.1073   7.1617   7.2854   7.4941   7.7832
     7.8414   8.0723   8.1219   8.2215   8.3420   8.7811   8.8979   8.9044
     9.1614   9.2181   9.3178   9.3776   9.5260   9.6797  10.1513  11.6663
    13.6984  14.5647  14.9027  15.5236  15.6467  15.7145  15.8353  16.0943
    16.2824  16.7200

     occupation numbers 
     1.0000   1.0000   1.0000   1.0000   1.0000   1.0000   1.0000   1.0000
     1.0000   1.0000   1.0000   1.0000   1.0000   1.0000   1.0000   1.0000
     1.0000   1.0000   1.0000   1.0000   1.0000   1.0000   1.0000   1.0000
     1.0000   1.0000   1.0000   1.0000   1.0000   1.0000   1.0000   1.0000
     1.0000   1.0000   1.0000   1.0000   1.0000   1.0000   1.0000   1.0000
     1.0000   1.0000   1.0000   1.0000   1.0000   1.0000   1.0000   1.0000
     1.0000   1.0000   1.0000   1.0000   1.0000   1.0000   1.0000   1.0000
     1.0000   1.0000   1.0000   1.0000   1.0000   1.0427   0.8160   0.0000
     0.0000   0.0000   0.0000   0.0000   0.0000   0.0000   0.0000   0.0000
     0.0000   0.0000

          k = 0.0625 0.4375 0.0621 (  9292 PWs)   bands (ev):

  -101.2846-101.2846-100.9209 -59.2589 -59.2588 -59.2533 -59.2532 -58.9117
   -58.8610 -58.8602 -58.6984 -58.6981 -30.7574 -16.1385 -16.1271 -11.3120
   -11.0842 -10.8086  -7.1633  -7.0501  -6.9618  -6.7256  -6.4584  -6.4105
    -1.5808  -1.3772  -1.1927  -1.1290  -0.9404  -0.9196   4.2449   4.4434
     5.0878   5.6286   5.7327   5.7563   6.1487   6.2247   6.2560   6.4122
     6.4896   6.6721   6.8922   7.1160   7.1764   7.3787   7.4703   7.7685
     7.8678   8.0648   8.1227   8.2339   8.3540   8.7899   8.9046   8.9054
     9.1413   9.2164   9.3177   9.3681   9.5189   9.6864  10.1335  11.6744
    13.7135  14.5430  14.9020  15.5148  15.5785  15.7119  15.8532  16.1018
    16.2681  16.7819

     occupation numbers 
     1.0000   1.0000   1.0000   1.0000   1.0000   1.0000   1.0000   1.0000
     1.0000   1.0000   1.0000   1.0000   1.0000   1.0000   1.0000   1.0000
     1.0000   1.0000   1.0000   1.0000   1.0000   1.0000   1.0000   1.0000
     1.0000   1.0000   1.0000   1.0000   1.0000   1.0000   1.0000   1.0000
     1.0000   1.0000   1.0000   1.0000   1.0000   1.0000   1.0000   1.0000
     1.0000   1.0000   1.0000   1.0000   1.0000   1.0000   1.0000   1.0000
     1.0000   1.0000   1.0000   1.0000   1.0000   1.0000   1.0000   1.0000
     1.0000   1.0000   1.0000   1.0000   1.0000   1.0417   0.8307   0.0000
     0.0000   0.0000   0.0000   0.0000   0.0000   0.0000   0.0000   0.0000
     0.0000   0.0000

          k = 0.0625 0.4375 0.1036 (  9286 PWs)   bands (ev):

  -101.2846-101.2846-100.9209 -59.2589 -59.2588 -59.2533 -59.2532 -58.9117
   -58.8610 -58.8602 -58.6984 -58.6981 -30.7574 -16.1388 -16.1268 -11.3120
   -11.0843 -10.8086  -7.1861  -7.0224  -6.9331  -6.7722  -6.4449  -6.4108
    -1.5740  -1.3844  -1.1922  -1.1296  -0.9403  -0.9197   4.2614   4.4256
     5.0878   5.6163   5.7260   5.7569   6.2109   6.2545   6.2788   6.3793
     6.4787   6.6905   6.7471   7.1193   7.1847   7.4385   7.4672   7.7522
     7.8967   8.0544   8.1239   8.2496   8.3734   8.8015   8.9051   8.9275
     9.1003   9.2144   9.3173   9.3557   9.5089   9.6962  10.1083  11.6859
    13.7347  14.5106  14.9011  15.4938  15.5287  15.6862  15.8844  16.1053
    16.2488  16.7616

     occupation numbers 
     1.0000   1.0000   1.0000   1.0000   1.0000   1.0000   1.0000   1.0000
     1.0000   1.0000   1.0000   1.0000   1.0000   1.0000   1.0000   1.0000
     1.0000   1.0000   1.0000   1.0000   1.0000   1.0000   1.0000   1.0000
     1.0000   1.0000   1.0000   1.0000   1.0000   1.0000   1.0000   1.0000
     1.0000   1.0000   1.0000   1.0000   1.0000   1.0000   1.0000   1.0000
     1.0000   1.0000   1.0000   1.0000   1.0000   1.0000   1.0000   1.0000
     1.0000   1.0000   1.0000   1.0000   1.0000   1.0000   1.0000   1.0000
     1.0000   1.0000   1.0000   1.0000   1.0000   1.0402   0.8499   0.0000
     0.0000   0.0000   0.0000   0.0000   0.0000   0.0000   0.0000   0.0000
     0.0000   0.0000

          k = 0.0625 0.4375 0.1450 (  9285 PWs)   bands (ev):

  -101.2846-101.2846-100.9209 -59.2589 -59.2588 -59.2533 -59.2532 -58.9117
   -58.8610 -58.8602 -58.6984 -58.6981 -30.7574 -16.1390 -16.1266 -11.3120
   -11.0843 -10.8086  -7.1978  -7.0122  -6.8844  -6.8276  -6.4365  -6.4111
    -1.5688  -1.3898  -1.1919  -1.1301  -0.9403  -0.9198   4.2758   4.4103
     5.0879   5.6085   5.7216   5.7572   6.2514   6.2621   6.3458   6.3605
     6.4581   6.6224   6.7145   7.1197   7.1903   7.4199   7.5145   7.7419
     7.9144   8.0469   8.1247   8.2594   8.3889   8.8080   8.9054   8.9681
     9.0465   9.2131   9.3166   9.3479   9.5019   9.7033  10.0905  11.6940
    13.7498  14.4867  14.9005  15.4705  15.5131  15.6684  15.9083  16.0984
    16.2364  16.7532

     occupation numbers 
     1.0000   1.0000   1.0000   1.0000   1.0000   1.0000   1.0000   1.0000
     1.0000   1.0000   1.0000   1.0000   1.0000   1.0000   1.0000   1.0000
     1.0000   1.0000   1.0000   1.0000   1.0000   1.0000   1.0000   1.0000
     1.0000   1.0000   1.0000   1.0000   1.0000   1.0000   1.0000   1.0000
     1.0000   1.0000   1.0000   1.0000   1.0000   1.0000   1.0000   1.0000
     1.0000   1.0000   1.0000   1.0000   1.0000   1.0000   1.0000   1.0000
     1.0000   1.0000   1.0000   1.0000   1.0000   1.0000   1.0000   1.0000
     1.0000   1.0000   1.0000   1.0000   1.0000   1.0390   0.8625   0.0000
     0.0000   0.0000   0.0000   0.0000   0.0000   0.0000   0.0000   0.0000
     0.0000   0.0000

          k = 0.1875 0.1875 0.0207 (  9294 PWs)   bands (ev):

  -101.2846-101.2846-100.9209 -59.2588 -59.2588 -59.2533 -59.2532 -58.9117
   -58.8610 -58.8602 -58.6983 -58.6982 -30.7624 -16.1839 -16.1721 -11.1764
   -10.9868 -10.9613  -7.3477  -6.9080  -6.8467  -6.5753  -6.4608  -6.4493
    -1.6060  -1.3837  -1.3762  -1.3519  -0.9559  -0.9100   4.6568   4.9791
     5.2236   5.3394   5.3971   5.7535   6.2449   6.4495   6.4592   6.5483
     6.5501   6.9268   7.1631   7.4340   7.4558   7.7454   7.7907   7.8333
     8.0141   8.1048   8.1534   8.2052   8.3277   8.6211   8.6359   8.6991
     8.7275   8.7354   9.2875   9.4014   9.6643  10.1389  10.3238  12.4516
    13.5649  13.6643  14.4694  14.5688  14.5957  14.9840  15.7384  15.9227
    16.1754  16.3154

     occupation numbers 
     1.0000   1.0000   1.0000   1.0000   1.0000   1.0000   1.0000   1.0000
     1.0000   1.0000   1.0000   1.0000   1.0000   1.0000   1.0000   1.0000
     1.0000   1.0000   1.0000   1.0000   1.0000   1.0000   1.0000   1.0000
     1.0000   1.0000   1.0000   1.0000   1.0000   1.0000   1.0000   1.0000
     1.0000   1.0000   1.0000   1.0000   1.0000   1.0000   1.0000   1.0000
     1.0000   1.0000   1.0000   1.0000   1.0000   1.0000   1.0000   1.0000
     1.0000   1.0000   1.0000   1.0000   1.0000   1.0000   1.0000   1.0000
     1.0000   1.0000   1.0000   1.0000   1.0000   0.8669   0.5870   0.0000
     0.0000   0.0000   0.0000   0.0000   0.0000   0.0000   0.0000   0.0000
     0.0000   0.0000

          k = 0.1875 0.1875 0.0621 (  9284 PWs)   bands (ev):

  -101.2846-101.2846-100.9209 -59.2588 -59.2588 -59.2533 -59.2532 -58.9117
   -58.8610 -58.8602 -58.6983 -58.6982 -30.7624 -16.1841 -16.1719 -11.1764
   -10.9868 -10.9613  -7.3465  -6.9306  -6.8191  -6.5816  -6.4608  -6.4493
    -1.6031  -1.3870  -1.3751  -1.3530  -0.9543  -0.9114   4.6766   4.9494
     5.2268   5.3393   5.3972   5.7488   6.2725   6.4510   6.4756   6.5411
     6.5510   6.9278   7.0594   7.4338   7.5392   7.7123   7.8412   7.8452
     8.0113   8.0715   8.1527   8.2255   8.3174   8.6195   8.6312   8.7003
     8.7316   8.7698   9.2578   9.3762   9.6593  10.1457  10.3211  12.4619
    13.5619  13.6823  14.4386  14.6131  14.6389  14.9590  15.5127  15.9773
    16.2006  16.2844

     occupation numbers 
     1.0000   1.0000   1.0000   1.0000   1.0000   1.0000   1.0000   1.0000
     1.0000   1.0000   1.0000   1.0000   1.0000   1.0000   1.0000   1.0000
     1.0000   1.0000   1.0000   1.0000   1.0000   1.0000   1.0000   1.0000
     1.0000   1.0000   1.0000   1.0000   1.0000   1.0000   1.0000   1.0000
     1.0000   1.0000   1.0000   1.0000   1.0000   1.0000   1.0000   1.0000
     1.0000   1.0000   1.0000   1.0000   1.0000   1.0000   1.0000   1.0000
     1.0000   1.0000   1.0000   1.0000   1.0000   1.0000   1.0000   1.0000
     1.0000   1.0000   1.0000   1.0000   1.0000   0.8609   0.5930   0.0000
     0.0000   0.0000   0.0000   0.0000   0.0000   0.0000   0.0000   0.0000
     0.0000   0.0000

          k = 0.1875 0.1875 0.1036 (  9283 PWs)   bands (ev):

  -101.2846-101.2846-100.9209 -59.2588 -59.2588 -59.2533 -59.2532 -58.9117
   -58.8610 -58.8602 -58.6983 -58.6982 -30.7624 -16.1845 -16.1715 -11.1764
   -10.9868 -10.9613  -7.3448  -6.9508  -6.7907  -6.5916  -6.4608  -6.4493
    -1.5988  -1.3917  -1.3733  -1.3548  -0.9520  -0.9136   4.7135   4.8996
     5.2303   5.3393   5.3972   5.7426   6.3147   6.4585   6.4878   6.5427
     6.5522   6.9292   6.9419   7.4227   7.6326   7.6915   7.8618   7.8987
     8.0032   8.0200   8.1530   8.2466   8.3017   8.6173   8.6239   8.7018
     8.7351   8.8397   9.1857   9.3528   9.6523  10.1555  10.3170  12.4764
    13.5577  13.7088  14.4176  14.6516  14.7190  14.9098  15.3294  16.0125
    16.1206  16.1570

     occupation numbers 
     1.0000   1.0000   1.0000   1.0000   1.0000   1.0000   1.0000   1.0000
     1.0000   1.0000   1.0000   1.0000   1.0000   1.0000   1.0000   1.0000
     1.0000   1.0000   1.0000   1.0000   1.0000   1.0000   1.0000   1.0000
     1.0000   1.0000   1.0000   1.0000   1.0000   1.0000   1.0000   1.0000
     1.0000   1.0000   1.0000   1.0000   1.0000   1.0000   1.0000   1.0000
     1.0000   1.0000   1.0000   1.0000   1.0000   1.0000   1.0000   1.0000
     1.0000   1.0000   1.0000   1.0000   1.0000   1.0000   1.0000   1.0000
     1.0000   1.0000   1.0000   1.0000   1.0000   0.8520   0.6018   0.0000
     0.0000   0.0000   0.0000   0.0000   0.0000   0.0000   0.0000   0.0000
     0.0000   0.0000

          k = 0.1875 0.1875 0.1450 (  9296 PWs)   bands (ev):

  -101.2846-101.2846-100.9209 -59.2588 -59.2588 -59.2533 -59.2532 -58.9117
   -58.8610 -58.8602 -58.6983 -58.6982 -30.7624 -16.1847 -16.1713 -11.1764
   -10.9868 -10.9614  -7.3435  -6.9620  -6.7726  -6.5998  -6.4608  -6.4493
    -1.5956  -1.3952  -1.3718  -1.3563  -0.9501  -0.9153   4.7590   4.8458
     5.2322   5.3392   5.3972   5.7384   6.3487   6.4593   6.4878   6.5527
     6.5669   6.8559   6.9303   7.4149   7.6804   7.6915   7.8979   7.9429
     7.9610   7.9875   8.1534   8.2590   8.2896   8.6158   8.6187   8.7029
     8.7372   8.9285   9.0900   9.3425   9.6475  10.1626  10.3138  12.4865
    13.5547  13.7284  14.4082  14.7025  14.7754  14.8470  15.2324  16.0143
    16.0331  16.1332

     occupation numbers 
     1.0000   1.0000   1.0000   1.0000   1.0000   1.0000   1.0000   1.0000
     1.0000   1.0000   1.0000   1.0000   1.0000   1.0000   1.0000   1.0000
     1.0000   1.0000   1.0000   1.0000   1.0000   1.0000   1.0000   1.0000
     1.0000   1.0000   1.0000   1.0000   1.0000   1.0000   1.0000   1.0000
     1.0000   1.0000   1.0000   1.0000   1.0000   1.0000   1.0000   1.0000
     1.0000   1.0000   1.0000   1.0000   1.0000   1.0000   1.0000   1.0000
     1.0000   1.0000   1.0000   1.0000   1.0000   1.0000   1.0000   1.0000
     1.0000   1.0000   1.0000   1.0000   1.0000   0.8454   0.6082   0.0000
     0.0000   0.0000   0.0000   0.0000   0.0000   0.0000   0.0000   0.0000
     0.0000   0.0000

          k = 0.1875 0.3125 0.0207 (  9312 PWs)   bands (ev):

  -101.2846-101.2846-100.9209 -59.2588 -59.2588 -59.2533 -59.2532 -58.9117
   -58.8610 -58.8602 -58.6984 -58.6982 -30.7575 -16.1436 -16.1324 -11.1730
   -11.0959 -10.9609  -7.1037  -6.9547  -6.8759  -6.6162  -6.5194  -6.4223
    -1.5918  -1.4563  -1.4486  -1.3611  -1.0455  -0.9958   4.2436   4.6332
     5.1415   5.3415   5.3728   5.8078   5.9791   5.9948   6.3241   6.4567
     6.5387   6.8697   7.0793   7.1783   7.3839   7.7156   7.8322   7.9797
     8.0230   8.1102   8.1943   8.2955   8.3235   8.6187   8.8565   8.8678
     9.0237   9.1072   9.2761   9.4242   9.6155  10.5117  10.7192  12.2108
    13.3023  14.2519  14.4280  15.0357  15.3609  15.3798  15.7902  16.0668
    16.2605  16.4174

     occupation numbers 
     1.0000   1.0000   1.0000   1.0000   1.0000   1.0000   1.0000   1.0000
     1.0000   1.0000   1.0000   1.0000   1.0000   1.0000   1.0000   1.0000
     1.0000   1.0000   1.0000   1.0000   1.0000   1.0000   1.0000   1.0000
     1.0000   1.0000   1.0000   1.0000   1.0000   1.0000   1.0000   1.0000
     1.0000   1.0000   1.0000   1.0000   1.0000   1.0000   1.0000   1.0000
     1.0000   1.0000   1.0000   1.0000   1.0000   1.0000   1.0000   1.0000
     1.0000   1.0000   1.0000   1.0000   1.0000   1.0000   1.0000   1.0000
     1.0000   1.0000   1.0000   1.0000   1.0000   0.2701  -0.0138   0.0000
     0.0000   0.0000   0.0000   0.0000   0.0000   0.0000   0.0000   0.0000
     0.0000   0.0000

          k = 0.1875 0.3125 0.0621 (  9304 PWs)   bands (ev):

  -101.2846-101.2846-100.9209 -59.2588 -59.2588 -59.2533 -59.2532 -58.9117
   -58.8610 -58.8602 -58.6984 -58.6982 -30.7575 -16.1439 -16.1322 -11.1730
   -11.0959 -10.9609  -7.0985  -6.9808  -6.8457  -6.6284  -6.5195  -6.4193
    -1.5904  -1.4550  -1.4491  -1.3637  -1.0436  -0.9977   4.2578   4.6119
     5.1439   5.3339   5.3807   5.8015   5.9805   5.9985   6.3630   6.4493
     6.5447   6.8632   6.9665   7.2158   7.4316   7.7367   7.8505   7.9692
     8.0213   8.1134   8.1638   8.3034   8.3274   8.6244   8.8563   8.8900
     9.0223   9.1061   9.2708   9.3885   9.6100  10.5150  10.7152  12.2165
    13.3191  14.2397  14.4571  15.0116  15.3723  15.4013  15.7135  15.9870
    16.2370  16.4185

     occupation numbers 
     1.0000   1.0000   1.0000   1.0000   1.0000   1.0000   1.0000   1.0000
     1.0000   1.0000   1.0000   1.0000   1.0000   1.0000   1.0000   1.0000
     1.0000   1.0000   1.0000   1.0000   1.0000   1.0000   1.0000   1.0000
     1.0000   1.0000   1.0000   1.0000   1.0000   1.0000   1.0000   1.0000
     1.0000   1.0000   1.0000   1.0000   1.0000   1.0000   1.0000   1.0000
     1.0000   1.0000   1.0000   1.0000   1.0000   1.0000   1.0000   1.0000
     1.0000   1.0000   1.0000   1.0000   1.0000   1.0000   1.0000   1.0000
     1.0000   1.0000   1.0000   1.0000   1.0000   0.2635  -0.0056   0.0000
     0.0000   0.0000   0.0000   0.0000   0.0000   0.0000   0.0000   0.0000
     0.0000   0.0000

          k = 0.1875 0.3125 0.1036 (  9306 PWs)   bands (ev):

  -101.2846-101.2846-100.9209 -59.2588 -59.2588 -59.2533 -59.2532 -58.9117
   -58.8610 -58.8602 -58.6984 -58.6982 -30.7575 -16.1442 -16.1319 -11.1730
   -11.0959 -10.9609  -7.0888  -7.0089  -6.8110  -6.6484  -6.5197  -6.4154
    -1.5885  -1.4529  -1.4497  -1.3675  -1.0406  -1.0007   4.2809   4.5790
     5.1472   5.3266   5.3884   5.7932   5.9849   6.0020   6.4222   6.4482
     6.5539   6.8082   6.8959   7.2174   7.4926   7.7681   7.8843   7.9567
     8.0103   8.1077   8.1345   8.2972   8.3433   8.6310   8.8620   8.9277
     9.0191   9.1023   9.2556   9.3365   9.6036  10.5199  10.7095  12.2241
    13.3435  14.2195  14.5109  14.9626  15.3847  15.4562  15.6297  15.9107
    16.0899  16.4592

     occupation numbers 
     1.0000   1.0000   1.0000   1.0000   1.0000   1.0000   1.0000   1.0000
     1.0000   1.0000   1.0000   1.0000   1.0000   1.0000   1.0000   1.0000
     1.0000   1.0000   1.0000   1.0000   1.0000   1.0000   1.0000   1.0000
     1.0000   1.0000   1.0000   1.0000   1.0000   1.0000   1.0000   1.0000
     1.0000   1.0000   1.0000   1.0000   1.0000   1.0000   1.0000   1.0000
     1.0000   1.0000   1.0000   1.0000   1.0000   1.0000   1.0000   1.0000
     1.0000   1.0000   1.0000   1.0000   1.0000   1.0000   1.0000   1.0000
     1.0000   1.0000   1.0000   1.0000   1.0000   0.2539   0.0062   0.0000
     0.0000   0.0000   0.0000   0.0000   0.0000   0.0000   0.0000   0.0000
     0.0000   0.0000

          k = 0.1875 0.3125 0.1450 (  9303 PWs)   bands (ev):

  -101.2846-101.2846-100.9209 -59.2588 -59.2588 -59.2533 -59.2532 -58.9117
   -58.8610 -58.8602 -58.6984 -58.6982 -30.7575 -16.1444 -16.1317 -11.1730
   -11.0959 -10.9609  -7.0779  -7.0296  -6.7854  -6.6665  -6.5199  -6.4129
    -1.5871  -1.4512  -1.4502  -1.3704  -1.0382  -1.0031   4.3005   4.5526
     5.1493   5.3225   5.3927   5.7877   5.9906   6.0022   6.4273   6.5059
     6.5700   6.7088   6.8868   7.2120   7.5300   7.7925   7.9244   7.9493
     7.9844   8.0873   8.1310   8.2903   8.3549   8.6344   8.8672   8.9744
     9.0110   9.0942   9.2274   9.3075   9.5998  10.5234  10.7054  12.2292
    13.3612  14.2040  14.5626  14.9121  15.3915  15.5317  15.5811  15.8119
    16.0232  16.4547

     occupation numbers 
     1.0000   1.0000   1.0000   1.0000   1.0000   1.0000   1.0000   1.0000
     1.0000   1.0000   1.0000   1.0000   1.0000   1.0000   1.0000   1.0000
     1.0000   1.0000   1.0000   1.0000   1.0000   1.0000   1.0000   1.0000
     1.0000   1.0000   1.0000   1.0000   1.0000   1.0000   1.0000   1.0000
     1.0000   1.0000   1.0000   1.0000   1.0000   1.0000   1.0000   1.0000
     1.0000   1.0000   1.0000   1.0000   1.0000   1.0000   1.0000   1.0000
     1.0000   1.0000   1.0000   1.0000   1.0000   1.0000   1.0000   1.0000
     1.0000   1.0000   1.0000   1.0000   1.0000   0.2469   0.0147   0.0000
     0.0000   0.0000   0.0000   0.0000   0.0000   0.0000   0.0000   0.0000
     0.0000   0.0000

          k = 0.1875 0.4375 0.0207 (  9299 PWs)   bands (ev):

  -101.2846-101.2846-100.9209 -59.2589 -59.2588 -59.2533 -59.2532 -58.9117
   -58.8610 -58.8602 -58.6984 -58.6982 -30.7541 -16.1147 -16.1039 -11.2998
   -11.0357 -10.9534  -7.0480  -7.0070  -6.7949  -6.6499  -6.5186  -6.4238
    -1.5856  -1.4161  -1.4121  -1.3439  -1.1975  -1.1583   3.9508   4.3389
     5.0880   5.3551   5.5031   5.5921   5.7438   5.8960   6.3610   6.4268
     6.6193   6.7326   6.9670   7.2709   7.3349   7.5363   7.8045   7.8654
     8.1016   8.1395   8.1989   8.3090   8.4298   8.8562   8.9714   8.9807
     9.2353   9.2751   9.3673   9.4521   9.5287  10.6247  10.8610  11.8273
    13.2172  14.2946  14.7747  15.1579  15.4351  16.0274  16.1024  16.1911
    16.3649  16.7099

     occupation numbers 
     1.0000   1.0000   1.0000   1.0000   1.0000   1.0000   1.0000   1.0000
     1.0000   1.0000   1.0000   1.0000   1.0000   1.0000   1.0000   1.0000
     1.0000   1.0000   1.0000   1.0000   1.0000   1.0000   1.0000   1.0000
     1.0000   1.0000   1.0000   1.0000   1.0000   1.0000   1.0000   1.0000
     1.0000   1.0000   1.0000   1.0000   1.0000   1.0000   1.0000   1.0000
     1.0000   1.0000   1.0000   1.0000   1.0000   1.0000   1.0000   1.0000
     1.0000   1.0000   1.0000   1.0000   1.0000   1.0000   1.0000   1.0000
     1.0000   1.0000   1.0000   1.0000   1.0000   0.1493  -0.0524   0.0000
     0.0000   0.0000   0.0000   0.0000   0.0000   0.0000   0.0000   0.0000
     0.0000   0.0000

          k = 0.1875 0.4375 0.0621 (  9302 PWs)   bands (ev):

  -101.2846-101.2846-100.9209 -59.2589 -59.2588 -59.2533 -59.2532 -58.9117
   -58.8610 -58.8602 -58.6984 -58.6982 -30.7541 -16.1149 -16.1037 -11.2998
   -11.0357 -10.9534  -7.0794  -6.9609  -6.7957  -6.6726  -6.5188  -6.4148
    -1.5831  -1.4161  -1.4127  -1.3463  -1.1958  -1.1599   3.9614   4.3242
     5.0892   5.3428   5.5158   5.5962   5.7454   5.8931   6.3615   6.4507
     6.6224   6.7358   6.9059   7.2197   7.3959   7.5689   7.8199   7.8709
     8.0831   8.1242   8.2087   8.3105   8.4395   8.8587   8.9717   8.9872
     9.2344   9.2601   9.3542   9.4527   9.5151  10.6271  10.8568  11.8312
    13.2489  14.2906  14.7525  15.1700  15.4356  15.9616  16.0622  16.2348
    16.3637  16.6656

     occupation numbers 
     1.0000   1.0000   1.0000   1.0000   1.0000   1.0000   1.0000   1.0000
     1.0000   1.0000   1.0000   1.0000   1.0000   1.0000   1.0000   1.0000
     1.0000   1.0000   1.0000   1.0000   1.0000   1.0000   1.0000   1.0000
     1.0000   1.0000   1.0000   1.0000   1.0000   1.0000   1.0000   1.0000
     1.0000   1.0000   1.0000   1.0000   1.0000   1.0000   1.0000   1.0000
     1.0000   1.0000   1.0000   1.0000   1.0000   1.0000   1.0000   1.0000
     1.0000   1.0000   1.0000   1.0000   1.0000   1.0000   1.0000   1.0000
     1.0000   1.0000   1.0000   1.0000   1.0000   0.1463  -0.0480   0.0000
     0.0000   0.0000   0.0000   0.0000   0.0000   0.0000   0.0000   0.0000
     0.0000   0.0000

          k = 0.1875 0.4375 0.1036 (  9308 PWs)   bands (ev):

  -101.2846-101.2846-100.9209 -59.2589 -59.2588 -59.2533 -59.2532 -58.9117
   -58.8610 -58.8602 -58.6984 -58.6982 -30.7541 -16.1152 -16.1034 -11.2998
   -11.0357 -10.9534  -7.1013  -6.9117  -6.7988  -6.7079  -6.5190  -6.4037
    -1.5793  -1.4161  -1.4135  -1.3497  -1.1932  -1.1626   3.9777   4.3019
     5.0910   5.3284   5.5305   5.6021   5.7479   5.8894   6.3567   6.5028
     6.6263   6.7369   6.8209   7.1758   7.4468   7.6142   7.8265   7.8972
     8.0565   8.0981   8.2194   8.3182   8.4511   8.8612   8.9731   9.0012
     9.2154   9.2432   9.3396   9.4553   9.4974  10.6307  10.8509  11.8368
    13.2953  14.2816  14.7203  15.2011  15.4361  15.8976  16.0301  16.2109
    16.3153  16.6912

     occupation numbers 
     1.0000   1.0000   1.0000   1.0000   1.0000   1.0000   1.0000   1.0000
     1.0000   1.0000   1.0000   1.0000   1.0000   1.0000   1.0000   1.0000
     1.0000   1.0000   1.0000   1.0000   1.0000   1.0000   1.0000   1.0000
     1.0000   1.0000   1.0000   1.0000   1.0000   1.0000   1.0000   1.0000
     1.0000   1.0000   1.0000   1.0000   1.0000   1.0000   1.0000   1.0000
     1.0000   1.0000   1.0000   1.0000   1.0000   1.0000   1.0000   1.0000
     1.0000   1.0000   1.0000   1.0000   1.0000   1.0000   1.0000   1.0000
     1.0000   1.0000   1.0000   1.0000   1.0000   0.1419  -0.0416   0.0000
     0.0000   0.0000   0.0000   0.0000   0.0000   0.0000   0.0000   0.0000
     0.0000   0.0000

          k = 0.1875 0.4375 0.1450 (  9307 PWs)   bands (ev):

  -101.2846-101.2846-100.9209 -59.2589 -59.2588 -59.2533 -59.2532 -58.9117
   -58.8610 -58.8602 -58.6984 -58.6982 -30.7541 -16.1154 -16.1032 -11.2998
   -11.0357 -10.9534  -7.1124  -6.8684  -6.8082  -6.7375  -6.5191  -6.3966
    -1.5766  -1.4164  -1.4138  -1.3521  -1.1910  -1.1648   3.9908   4.2848
     5.0923   5.3197   5.5391   5.6062   5.7500   5.8870   6.3517   6.5673
     6.6303   6.7023   6.7738   7.1495   7.4745   7.6487   7.8196   7.9355
     8.0273   8.0782   8.2256   8.3268   8.4583   8.8622   8.9745   9.0192
     9.1778   9.2419   9.3323   9.4594   9.4843  10.6333  10.8469  11.8406
    13.3293  14.2725  14.6984  15.2330  15.4362  15.8686  15.9917  16.1527
    16.3084  16.7186

     occupation numbers 
     1.0000   1.0000   1.0000   1.0000   1.0000   1.0000   1.0000   1.0000
     1.0000   1.0000   1.0000   1.0000   1.0000   1.0000   1.0000   1.0000
     1.0000   1.0000   1.0000   1.0000   1.0000   1.0000   1.0000   1.0000
     1.0000   1.0000   1.0000   1.0000   1.0000   1.0000   1.0000   1.0000
     1.0000   1.0000   1.0000   1.0000   1.0000   1.0000   1.0000   1.0000
     1.0000   1.0000   1.0000   1.0000   1.0000   1.0000   1.0000   1.0000
     1.0000   1.0000   1.0000   1.0000   1.0000   1.0000   1.0000   1.0000
     1.0000   1.0000   1.0000   1.0000   1.0000   0.1388  -0.0369   0.0000
     0.0000   0.0000   0.0000   0.0000   0.0000   0.0000   0.0000   0.0000
     0.0000   0.0000

          k = 0.3125 0.3125 0.0207 (  9288 PWs)   bands (ev):

  -101.2846-101.2846-100.9209 -59.2588 -59.2588 -59.2533 -59.2533 -58.9117
   -58.8610 -58.8602 -58.6984 -58.6982 -30.7528 -16.1071 -16.0962 -11.1647
   -11.1426 -11.0207  -6.9630  -6.8889  -6.7220  -6.6459  -6.5904  -6.3799
    -1.6778  -1.6496  -1.5760  -1.3788  -1.2807  -1.2308   3.8034   4.3422
     5.1388   5.1490   5.1782   5.3739   5.7218   6.1087   6.4130   6.4304
     6.5355   6.9481   6.9740   7.0509   7.3494   7.8360   7.9079   8.0746
     8.2182   8.4112   8.4376   8.4495   8.6109   8.8005   8.9923   9.0190
     9.0891   9.1214   9.3375   9.4910   9.7177  11.2124  11.3437  12.2557
    12.8281  13.8859  14.5966  14.8736  15.7374  15.7972  15.9087  16.2226
    16.3357  16.3807

     occupation numbers 
     1.0000   1.0000   1.0000   1.0000   1.0000   1.0000   1.0000   1.0000
     1.0000   1.0000   1.0000   1.0000   1.0000   1.0000   1.0000   1.0000
     1.0000   1.0000   1.0000   1.0000   1.0000   1.0000   1.0000   1.0000
     1.0000   1.0000   1.0000   1.0000   1.0000   1.0000   1.0000   1.0000
     1.0000   1.0000   1.0000   1.0000   1.0000   1.0000   1.0000   1.0000
     1.0000   1.0000   1.0000   1.0000   1.0000   1.0000   1.0000   1.0000
     1.0000   1.0000   1.0000   1.0000   1.0000   1.0000   1.0000   1.0000
     1.0000   1.0000   1.0000   1.0000   1.0000  -0.0310  -0.0010   0.0000
     0.0000   0.0000   0.0000   0.0000   0.0000   0.0000   0.0000   0.0000
     0.0000   0.0000

          k = 0.3125 0.3125 0.0621 (  9313 PWs)   bands (ev):

  -101.2846-101.2846-100.9209 -59.2588 -59.2588 -59.2533 -59.2533 -58.9117
   -58.8610 -58.8602 -58.6984 -58.6982 -30.7528 -16.1073 -16.0960 -11.1647
   -11.1426 -11.0207  -6.9700  -6.8768  -6.7288  -6.6458  -6.5889  -6.3799
    -1.6769  -1.6505  -1.5740  -1.3814  -1.2789  -1.2324   3.8141   4.3223
     5.1389   5.1581   5.1783   5.3792   5.7153   6.1050   6.4145   6.4317
     6.5596   6.9484   6.9645   6.9865   7.4050   7.8700   7.9199   8.0751
     8.2212   8.3740   8.4120   8.4533   8.6206   8.8027   8.9890   9.0178
     9.0982   9.1285   9.3351   9.4599   9.7169  11.2146  11.3426  12.2773
    12.8410  13.9123  14.5805  14.8287  15.7121  15.7209  15.7945  16.2539
    16.3869  16.4263

     occupation numbers 
     1.0000   1.0000   1.0000   1.0000   1.0000   1.0000   1.0000   1.0000
     1.0000   1.0000   1.0000   1.0000   1.0000   1.0000   1.0000   1.0000
     1.0000   1.0000   1.0000   1.0000   1.0000   1.0000   1.0000   1.0000
     1.0000   1.0000   1.0000   1.0000   1.0000   1.0000   1.0000   1.0000
     1.0000   1.0000   1.0000   1.0000   1.0000   1.0000   1.0000   1.0000
     1.0000   1.0000   1.0000   1.0000   1.0000   1.0000   1.0000   1.0000
     1.0000   1.0000   1.0000   1.0000   1.0000   1.0000   1.0000   1.0000
     1.0000   1.0000   1.0000   1.0000   1.0000  -0.0305  -0.0014   0.0000
     0.0000   0.0000   0.0000   0.0000   0.0000   0.0000   0.0000   0.0000
     0.0000   0.0000

          k = 0.3125 0.3125 0.1036 (  9322 PWs)   bands (ev):

  -101.2846-101.2846-100.9209 -59.2588 -59.2588 -59.2533 -59.2533 -58.9117
   -58.8610 -58.8602 -58.6984 -58.6982 -30.7528 -16.1076 -16.0957 -11.1647
   -11.1426 -11.0207  -6.9777  -6.8604  -6.7396  -6.6458  -6.5868  -6.3799
    -1.6755  -1.6519  -1.5709  -1.3851  -1.2762  -1.2349   3.8306   4.2934
     5.1389   5.1705   5.1784   5.3873   5.7057   6.1001   6.4148   6.4335
     6.6066   6.8834   6.9488   6.9721   7.4610   7.9310   7.9383   8.0756
     8.2287   8.3308   8.3509   8.4615   8.6326   8.8049   8.9921   9.0164
     9.1030   9.1379   9.3326   9.4160   9.7158  11.2178  11.3410  12.3073
    12.8596  13.9495  14.5708  14.7598  15.6207  15.6278  15.7474  16.2842
    16.3775  16.4864

     occupation numbers 
     1.0000   1.0000   1.0000   1.0000   1.0000   1.0000   1.0000   1.0000
     1.0000   1.0000   1.0000   1.0000   1.0000   1.0000   1.0000   1.0000
     1.0000   1.0000   1.0000   1.0000   1.0000   1.0000   1.0000   1.0000
     1.0000   1.0000   1.0000   1.0000   1.0000   1.0000   1.0000   1.0000
     1.0000   1.0000   1.0000   1.0000   1.0000   1.0000   1.0000   1.0000
     1.0000   1.0000   1.0000   1.0000   1.0000   1.0000   1.0000   1.0000
     1.0000   1.0000   1.0000   1.0000   1.0000   1.0000   1.0000   1.0000
     1.0000   1.0000   1.0000   1.0000   1.0000  -0.0297  -0.0020   0.0000
     0.0000   0.0000   0.0000   0.0000   0.0000   0.0000   0.0000   0.0000
     0.0000   0.0000

          k = 0.3125 0.3125 0.1450 (  9305 PWs)   bands (ev):

  -101.2846-101.2846-100.9209 -59.2588 -59.2588 -59.2533 -59.2533 -58.9117
   -58.8610 -58.8602 -58.6984 -58.6982 -30.7528 -16.1078 -16.0955 -11.1647
   -11.1426 -11.0207  -6.9822  -6.8483  -6.7485  -6.6457  -6.5854  -6.3799
    -1.6745  -1.6530  -1.5687  -1.3877  -1.2741  -1.2369   3.8434   4.2722
     5.1389   5.1774   5.1800   5.3933   5.6985   6.0969   6.4143   6.4348
     6.6639   6.8022   6.9491   6.9695   7.4920   7.9525   7.9908   8.0757
     8.2412   8.2935   8.2948   8.4650   8.6404   8.8058   9.0012   9.0155
     9.0985   9.1443   9.3327   9.3845   9.7149  11.2200  11.3398  12.3283
    12.8730  13.9748  14.5908  14.6892  15.5572  15.5612  15.7369  16.3001
    16.3720  16.5246

     occupation numbers 
     1.0000   1.0000   1.0000   1.0000   1.0000   1.0000   1.0000   1.0000
     1.0000   1.0000   1.0000   1.0000   1.0000   1.0000   1.0000   1.0000
     1.0000   1.0000   1.0000   1.0000   1.0000   1.0000   1.0000   1.0000
     1.0000   1.0000   1.0000   1.0000   1.0000   1.0000   1.0000   1.0000
     1.0000   1.0000   1.0000   1.0000   1.0000   1.0000   1.0000   1.0000
     1.0000   1.0000   1.0000   1.0000   1.0000   1.0000   1.0000   1.0000
     1.0000   1.0000   1.0000   1.0000   1.0000   1.0000   1.0000   1.0000
     1.0000   1.0000   1.0000   1.0000   1.0000  -0.0291  -0.0025   0.0000
     0.0000   0.0000   0.0000   0.0000   0.0000   0.0000   0.0000   0.0000
     0.0000   0.0000

          k = 0.3125 0.4375 0.0207 (  9311 PWs)   bands (ev):

  -101.2846-101.2846-100.9209 -59.2588 -59.2588 -59.2533 -59.2532 -58.9117
   -58.8610 -58.8602 -58.6984 -58.6982 -30.7494 -16.0810 -16.0703 -11.2825
   -11.1394 -10.9637  -6.9215  -6.8876  -6.6753  -6.5878  -6.5499  -6.3625
    -1.7203  -1.6851  -1.6102  -1.5222  -1.5010  -1.3558   3.4853   4.0423
     5.0547   5.0916   5.1375   5.1589   5.6028   6.1571   6.4187   6.4491
     6.6794   6.8354   6.9205   6.9672   7.6276   7.8257   7.8998   8.0469
     8.2669   8.4013   8.6559   8.7364   8.7739   8.9252   9.0855   9.1129
     9.1789   9.3306   9.4393   9.5445   9.6743  11.5463  11.6588  12.0486
    12.6346  13.6579  14.5056  15.2391  15.3134  15.6794  15.7872  16.3048
    16.6162  16.8631

     occupation numbers 
     1.0000   1.0000   1.0000   1.0000   1.0000   1.0000   1.0000   1.0000
     1.0000   1.0000   1.0000   1.0000   1.0000   1.0000   1.0000   1.0000
     1.0000   1.0000   1.0000   1.0000   1.0000   1.0000   1.0000   1.0000
     1.0000   1.0000   1.0000   1.0000   1.0000   1.0000   1.0000   1.0000
     1.0000   1.0000   1.0000   1.0000   1.0000   1.0000   1.0000   1.0000
     1.0000   1.0000   1.0000   1.0000   1.0000   1.0000   1.0000   1.0000
     1.0000   1.0000   1.0000   1.0000   1.0000   1.0000   1.0000   1.0000
     1.0000   1.0000   1.0000   1.0000   1.0000   0.0000   0.0000   0.0000
     0.0000   0.0000   0.0000   0.0000   0.0000   0.0000   0.0000   0.0000
     0.0000   0.0000

          k = 0.3125 0.4375 0.0621 (  9309 PWs)   bands (ev):

  -101.2846-101.2846-100.9209 -59.2588 -59.2588 -59.2533 -59.2532 -58.9117
   -58.8610 -58.8602 -58.6984 -58.6982 -30.7494 -16.0811 -16.0701 -11.2825
   -11.1394 -10.9637  -6.9481  -6.8484  -6.6754  -6.6144  -6.5402  -6.3580
    -1.7198  -1.6856  -1.6065  -1.5243  -1.5001  -1.3590   3.4937   4.0277
     5.0587   5.0974   5.1199   5.1800   5.5960   6.1597   6.4060   6.4622
     6.6872   6.8288   6.9176   6.9458   7.6527   7.8627   7.9108   8.0474
     8.2685   8.3875   8.5897   8.7515   8.7908   8.9232   9.0774   9.1138
     9.1779   9.3203   9.4426   9.5369   9.6722  11.5484  11.6574  12.0647
    12.6662  13.6798  14.5113  15.1316  15.3346  15.5378  15.7736  16.4118
    16.7139  16.8120

     occupation numbers 
     1.0000   1.0000   1.0000   1.0000   1.0000   1.0000   1.0000   1.0000
     1.0000   1.0000   1.0000   1.0000   1.0000   1.0000   1.0000   1.0000
     1.0000   1.0000   1.0000   1.0000   1.0000   1.0000   1.0000   1.0000
[...]
     9.0201   9.1021   9.2755   9.4206   9.6157  10.5023  10.7105  12.2108
    13.3024  14.2594  14.4284  15.0355  15.3544  15.3749  15.7976  16.0737
    16.2599  16.4158

     occupation numbers 
     1.0000   1.0000   1.0000   1.0000   1.0000   1.0000   1.0000   1.0000
     1.0000   1.0000   1.0000   1.0000   1.0000   1.0000   1.0000   1.0000
     1.0000   1.0000   1.0000   1.0000   1.0000   1.0000   1.0000   1.0000
     1.0000   1.0000   1.0000   1.0000   1.0000   1.0000   1.0000   1.0000
     1.0000   1.0000   1.0000   1.0000   1.0000   1.0000   1.0000   1.0000
     1.0000   1.0000   1.0000   1.0000   1.0000   1.0000   1.0000   1.0000
     1.0000   1.0000   1.0000   1.0000   1.0000   1.0000   1.0000   1.0000
     1.0000   1.0000   1.0000   1.0000   1.0000   0.2813  -0.0089   0.0000
     0.0000   0.0000   0.0000   0.0000   0.0000   0.0000   0.0000   0.0000
     0.0000   0.0000

          k = 0.3125 0.1875-0.0621 (  9304 PWs)   bands (ev):

  -101.2846-101.2846-100.9209 -59.2588 -59.2587 -59.2533 -59.2533 -58.9117
   -58.8610 -58.8602 -58.6983 -58.6982 -30.7576 -16.1438 -16.1321 -11.1664
   -11.0971 -10.9628  -7.1012  -6.9872  -6.8471  -6.6284  -6.5080  -6.4272
    -1.5908  -1.4551  -1.4472  -1.3664  -1.0436  -0.9976   4.2639   4.6234
     5.1433   5.3383   5.3776   5.8080   5.9782   5.9982   6.3642   6.4471
     6.5532   6.8661   6.9725   7.2172   7.4152   7.7352   7.8491   7.9692
     8.0238   8.1128   8.1628   8.3061   8.3316   8.6212   8.8500   8.8843
     9.0185   9.1010   9.2703   9.3860   9.6100  10.5057  10.7063  12.2165
    13.3194  14.2473  14.4569  15.0112  15.3657  15.3964  15.7177  16.0005
    16.2326  16.4176

     occupation numbers 
     1.0000   1.0000   1.0000   1.0000   1.0000   1.0000   1.0000   1.0000
     1.0000   1.0000   1.0000   1.0000   1.0000   1.0000   1.0000   1.0000
     1.0000   1.0000   1.0000   1.0000   1.0000   1.0000   1.0000   1.0000
     1.0000   1.0000   1.0000   1.0000   1.0000   1.0000   1.0000   1.0000
     1.0000   1.0000   1.0000   1.0000   1.0000   1.0000   1.0000   1.0000
     1.0000   1.0000   1.0000   1.0000   1.0000   1.0000   1.0000   1.0000
     1.0000   1.0000   1.0000   1.0000   1.0000   1.0000   1.0000   1.0000
     1.0000   1.0000   1.0000   1.0000   1.0000   0.2747  -0.0001   0.0000
     0.0000   0.0000   0.0000   0.0000   0.0000   0.0000   0.0000   0.0000
     0.0000   0.0000

          k = 0.3125 0.1875-0.1036 (  9306 PWs)   bands (ev):

  -101.2846-101.2846-100.9209 -59.2588 -59.2587 -59.2533 -59.2533 -58.9117
   -58.8610 -58.8602 -58.6983 -58.6982 -30.7576 -16.1441 -16.1318 -11.1664
   -11.0971 -10.9628  -7.0914  -7.0145  -6.8134  -6.6486  -6.5081  -6.4230
    -1.5888  -1.4529  -1.4480  -1.3703  -1.0406  -1.0006   4.2870   4.5899
     5.1473   5.3309   5.3851   5.7995   5.9834   6.0016   6.4231   6.4438
     6.5644   6.8174   6.8949   7.2133   7.4830   7.7658   7.8818   7.9597
     8.0114   8.1073   8.1347   8.2977   8.3481   8.6268   8.8556   8.9218
     9.0147   9.0977   9.2555   9.3356   9.6033  10.5106  10.7004  12.2241
    13.3440  14.2271  14.5100  14.9621  15.3778  15.4504  15.6322  15.9269
    16.0910  16.4505

     occupation numbers 
     1.0000   1.0000   1.0000   1.0000   1.0000   1.0000   1.0000   1.0000
     1.0000   1.0000   1.0000   1.0000   1.0000   1.0000   1.0000   1.0000
     1.0000   1.0000   1.0000   1.0000   1.0000   1.0000   1.0000   1.0000
     1.0000   1.0000   1.0000   1.0000   1.0000   1.0000   1.0000   1.0000
     1.0000   1.0000   1.0000   1.0000   1.0000   1.0000   1.0000   1.0000
     1.0000   1.0000   1.0000   1.0000   1.0000   1.0000   1.0000   1.0000
     1.0000   1.0000   1.0000   1.0000   1.0000   1.0000   1.0000   1.0000
     1.0000   1.0000   1.0000   1.0000   1.0000   0.2650   0.0126   0.0000
     0.0000   0.0000   0.0000   0.0000   0.0000   0.0000   0.0000   0.0000
     0.0000   0.0000

          k = 0.3125 0.1875-0.1450 (  9303 PWs)   bands (ev):

  -101.2846-101.2846-100.9209 -59.2588 -59.2587 -59.2533 -59.2533 -58.9117
   -58.8610 -58.8602 -58.6983 -58.6982 -30.7576 -16.1443 -16.1316 -11.1663
   -11.0971 -10.9628  -7.0803  -7.0351  -6.7885  -6.6666  -6.5082  -6.4203
    -1.5874  -1.4509  -1.4487  -1.3733  -1.0382  -1.0030   4.3067   4.5632
     5.1499   5.3268   5.3892   5.7939   5.9899   6.0014   6.4253   6.5004
     6.5832   6.7190   6.8858   7.2055   7.5232   7.7888   7.9207   7.9548
     7.9854   8.0881   8.1308   8.2900   8.3596   8.6297   8.8609   8.9684
     9.0041   9.0909   9.2286   9.3074   9.5994  10.5141  10.6962  12.2291
    13.3619  14.2116  14.5610  14.9119  15.3843  15.5229  15.5827  15.8293
    16.0290  16.4448

     occupation numbers 
     1.0000   1.0000   1.0000   1.0000   1.0000   1.0000   1.0000   1.0000
     1.0000   1.0000   1.0000   1.0000   1.0000   1.0000   1.0000   1.0000
     1.0000   1.0000   1.0000   1.0000   1.0000   1.0000   1.0000   1.0000
     1.0000   1.0000   1.0000   1.0000   1.0000   1.0000   1.0000   1.0000
     1.0000   1.0000   1.0000   1.0000   1.0000   1.0000   1.0000   1.0000
     1.0000   1.0000   1.0000   1.0000   1.0000   1.0000   1.0000   1.0000
     1.0000   1.0000   1.0000   1.0000   1.0000   1.0000   1.0000   1.0000
     1.0000   1.0000   1.0000   1.0000   1.0000   0.2579   0.0217   0.0000
     0.0000   0.0000   0.0000   0.0000   0.0000   0.0000   0.0000   0.0000
     0.0000   0.0000

          k = 0.4375 0.1875-0.0207 (  9299 PWs)   bands (ev):

  -101.2846-101.2846-100.9209 -59.2588 -59.2587 -59.2533 -59.2533 -58.9117
   -58.8610 -58.8602 -58.6983 -58.6983 -30.7542 -16.1146 -16.1038 -11.2904
   -11.0378 -10.9553  -7.0566  -7.0131  -6.7896  -6.6498  -6.5028  -6.4417
    -1.5875  -1.4143  -1.4114  -1.3445  -1.1987  -1.1595   3.9613   4.3578
     5.0869   5.3622   5.4979   5.6018   5.7414   5.8956   6.3614   6.4316
     6.6226   6.7314   6.9830   7.2584   7.3217   7.5344   7.8084   7.8689
     8.1016   8.1364   8.1906   8.3181   8.4307   8.8506   8.9637   8.9714
     9.2313   9.2684   9.3637   9.4527   9.5290  10.6075  10.8457  11.8280
    13.2189  14.2944  14.7951  15.1604  15.4457  16.0311  16.0937  16.1789
    16.3580  16.7137

     occupation numbers 
     1.0000   1.0000   1.0000   1.0000   1.0000   1.0000   1.0000   1.0000
     1.0000   1.0000   1.0000   1.0000   1.0000   1.0000   1.0000   1.0000
     1.0000   1.0000   1.0000   1.0000   1.0000   1.0000   1.0000   1.0000
     1.0000   1.0000   1.0000   1.0000   1.0000   1.0000   1.0000   1.0000
     1.0000   1.0000   1.0000   1.0000   1.0000   1.0000   1.0000   1.0000
     1.0000   1.0000   1.0000   1.0000   1.0000   1.0000   1.0000   1.0000
     1.0000   1.0000   1.0000   1.0000   1.0000   1.0000   1.0000   1.0000
     1.0000   1.0000   1.0000   1.0000   1.0000   0.1625  -0.0479   0.0000
     0.0000   0.0000   0.0000   0.0000   0.0000   0.0000   0.0000   0.0000
     0.0000   0.0000

          k = 0.4375 0.1875-0.0621 (  9302 PWs)   bands (ev):

  -101.2846-101.2846-100.9209 -59.2588 -59.2587 -59.2533 -59.2533 -58.9117
   -58.8610 -58.8602 -58.6983 -58.6983 -30.7542 -16.1148 -16.1036 -11.2904
   -11.0378 -10.9553  -7.0875  -6.9672  -6.7910  -6.6732  -6.5030  -6.4316
    -1.5848  -1.4146  -1.4117  -1.3469  -1.1970  -1.1611   3.9718   4.3428
     5.0883   5.3495   5.5112   5.6060   5.7428   5.8928   6.3609   6.4563
     6.6256   6.7367   6.9184   7.2028   7.3885   7.5679   7.8269   7.8713
     8.0819   8.1221   8.2014   8.3182   8.4405   8.8516   8.9630   8.9797
     9.2300   9.2524   9.3519   9.4533   9.5159  10.6101  10.8416  11.8319
    13.2505  14.2903  14.7736  15.1716  15.4469  15.9603  16.0598  16.2213
    16.3540  16.6729

     occupation numbers 
     1.0000   1.0000   1.0000   1.0000   1.0000   1.0000   1.0000   1.0000
     1.0000   1.0000   1.0000   1.0000   1.0000   1.0000   1.0000   1.0000
     1.0000   1.0000   1.0000   1.0000   1.0000   1.0000   1.0000   1.0000
     1.0000   1.0000   1.0000   1.0000   1.0000   1.0000   1.0000   1.0000
     1.0000   1.0000   1.0000   1.0000   1.0000   1.0000   1.0000   1.0000
     1.0000   1.0000   1.0000   1.0000   1.0000   1.0000   1.0000   1.0000
     1.0000   1.0000   1.0000   1.0000   1.0000   1.0000   1.0000   1.0000
     1.0000   1.0000   1.0000   1.0000   1.0000   0.1593  -0.0431   0.0000
     0.0000   0.0000   0.0000   0.0000   0.0000   0.0000   0.0000   0.0000
     0.0000   0.0000

          k = 0.4375 0.1875-0.1036 (  9308 PWs)   bands (ev):

  -101.2846-101.2846-100.9209 -59.2588 -59.2587 -59.2533 -59.2533 -58.9117
   -58.8610 -58.8602 -58.6983 -58.6983 -30.7542 -16.1151 -16.1033 -11.2904
   -11.0378 -10.9553  -7.1093  -6.9174  -6.7959  -6.7083  -6.5032  -6.4194
    -1.5810  -1.4153  -1.4120  -1.3502  -1.1945  -1.1637   3.9882   4.3202
     5.0902   5.3349   5.5262   5.6121   5.7452   5.8893   6.3556   6.5079
     6.6304   6.7426   6.8280   7.1561   7.4424   7.6144   7.8367   7.8944
     8.0545   8.0973   8.2127   8.3244   8.4521   8.8520   8.9639   8.9952
     9.2068   9.2385   9.3388   9.4557   9.4989  10.6138  10.8358  11.8373
    13.2965  14.2814  14.7418  15.2018  15.4484  15.8950  16.0304  16.1956
    16.3109  16.6925

     occupation numbers 
     1.0000   1.0000   1.0000   1.0000   1.0000   1.0000   1.0000   1.0000
     1.0000   1.0000   1.0000   1.0000   1.0000   1.0000   1.0000   1.0000
     1.0000   1.0000   1.0000   1.0000   1.0000   1.0000   1.0000   1.0000
     1.0000   1.0000   1.0000   1.0000   1.0000   1.0000   1.0000   1.0000
     1.0000   1.0000   1.0000   1.0000   1.0000   1.0000   1.0000   1.0000
     1.0000   1.0000   1.0000   1.0000   1.0000   1.0000   1.0000   1.0000
     1.0000   1.0000   1.0000   1.0000   1.0000   1.0000   1.0000   1.0000
     1.0000   1.0000   1.0000   1.0000   1.0000   0.1548  -0.0360   0.0000
     0.0000   0.0000   0.0000   0.0000   0.0000   0.0000   0.0000   0.0000
     0.0000   0.0000

          k = 0.4375 0.1875-0.1450 (  9307 PWs)   bands (ev):

  -101.2846-101.2846-100.9209 -59.2588 -59.2587 -59.2533 -59.2533 -58.9117
   -58.8610 -58.8602 -58.6983 -58.6983 -30.7542 -16.1153 -16.1031 -11.2904
   -11.0378 -10.9553  -7.1205  -6.8726  -6.8096  -6.7356  -6.5033  -6.4119
    -1.5782  -1.4161  -1.4120  -1.3526  -1.1923  -1.1659   4.0012   4.3028
     5.0916   5.3261   5.5350   5.6165   5.7472   5.8870   6.3505   6.5671
     6.6428   6.7117   6.7745   7.1280   7.4712   7.6496   7.8296   7.9329
     8.0256   8.0777   8.2192   8.3321   8.4592   8.8515   8.9651   9.0137
     9.1685   9.2378   9.3321   9.4593   9.4866  10.6164  10.8318  11.8411
    13.3303  14.2724  14.7199  15.2331  15.4492  15.8648  15.9949  16.1396
    16.3029  16.7173

     occupation numbers 
     1.0000   1.0000   1.0000   1.0000   1.0000   1.0000   1.0000   1.0000
     1.0000   1.0000   1.0000   1.0000   1.0000   1.0000   1.0000   1.0000
     1.0000   1.0000   1.0000   1.0000   1.0000   1.0000   1.0000   1.0000
     1.0000   1.0000   1.0000   1.0000   1.0000   1.0000   1.0000   1.0000
     1.0000   1.0000   1.0000   1.0000   1.0000   1.0000   1.0000   1.0000
     1.0000   1.0000   1.0000   1.0000   1.0000   1.0000   1.0000   1.0000
     1.0000   1.0000   1.0000   1.0000   1.0000   1.0000   1.0000   1.0000
     1.0000   1.0000   1.0000   1.0000   1.0000   0.1515  -0.0309   0.0000
     0.0000   0.0000   0.0000   0.0000   0.0000   0.0000   0.0000   0.0000
     0.0000   0.0000

          k = 0.4375 0.3125-0.0207 (  9311 PWs)   bands (ev):

  -101.2846-101.2846-100.9209 -59.2588 -59.2588 -59.2533 -59.2533 -58.9117
   -58.8610 -58.8602 -58.6983 -58.6983 -30.7494 -16.0809 -16.0703 -11.2731
   -11.1461 -10.9647  -6.9276  -6.8931  -6.6637  -6.5873  -6.5398  -6.3775
    -1.7191  -1.6842  -1.6098  -1.5221  -1.5032  -1.3574   3.4896   4.0515
     5.0555   5.0949   5.1352   5.1576   5.6020   6.1615   6.4152   6.4442
     6.6940   6.8373   6.9169   6.9546   7.6282   7.8254   7.8995   8.0469
     8.2672   8.4065   8.6588   8.7376   8.7740   8.9201   9.0909   9.1086
     9.1689   9.3259   9.4404   9.5445   9.6742  11.5355  11.6519  12.0464
    12.6405  13.6607  14.5072  15.2472  15.3249  15.6807  15.7725  16.3028
    16.6302  16.8624

     occupation numbers 
     1.0000   1.0000   1.0000   1.0000   1.0000   1.0000   1.0000   1.0000
     1.0000   1.0000   1.0000   1.0000   1.0000   1.0000   1.0000   1.0000
     1.0000   1.0000   1.0000   1.0000   1.0000   1.0000   1.0000   1.0000
     1.0000   1.0000   1.0000   1.0000   1.0000   1.0000   1.0000   1.0000
     1.0000   1.0000   1.0000   1.0000   1.0000   1.0000   1.0000   1.0000
     1.0000   1.0000   1.0000   1.0000   1.0000   1.0000   1.0000   1.0000
     1.0000   1.0000   1.0000   1.0000   1.0000   1.0000   1.0000   1.0000
     1.0000   1.0000   1.0000   1.0000   1.0000   0.0000   0.0000   0.0000
     0.0000   0.0000   0.0000   0.0000   0.0000   0.0000   0.0000   0.0000
     0.0000   0.0000

          k = 0.4375 0.3125-0.0621 (  9309 PWs)   bands (ev):

  -101.2846-101.2846-100.9209 -59.2588 -59.2588 -59.2533 -59.2533 -58.9117
   -58.8610 -58.8602 -58.6983 -58.6983 -30.7494 -16.0811 -16.0701 -11.2731
   -11.1461 -10.9647  -6.9543  -6.8536  -6.6639  -6.6145  -6.5296  -6.3730
    -1.7185  -1.6846  -1.6061  -1.5240  -1.5023  -1.3608   3.4980   4.0367
     5.0597   5.1008   5.1190   5.1772   5.5951   6.1641   6.4007   6.4598
     6.7031   6.8312   6.9094   6.9354   7.6532   7.8632   7.9102   8.0473
     8.2687   8.3927   8.5933   8.7483   8.7939   8.9181   9.0813   9.1111
     9.1677   9.3155   9.4439   9.5370   9.6722  11.5381  11.6505  12.0623
    12.6715  13.6827  14.5127  15.1389  15.3467  15.5381  15.7632  16.4101
    16.7123  16.8265

     occupation numbers 
     1.0000   1.0000   1.0000   1.0000   1.0000   1.0000   1.0000   1.0000
     1.0000   1.0000   1.0000   1.0000   1.0000   1.0000   1.0000   1.0000
     1.0000   1.0000   1.0000   1.0000   1.0000   1.0000   1.0000   1.0000
     1.0000   1.0000   1.0000   1.0000   1.0000   1.0000   1.0000   1.0000
     1.0000   1.0000   1.0000   1.0000   1.0000   1.0000   1.0000   1.0000
     1.0000   1.0000   1.0000   1.0000   1.0000   1.0000   1.0000   1.0000
     1.0000   1.0000   1.0000   1.0000   1.0000   1.0000   1.0000   1.0000
     1.0000   1.0000   1.0000   1.0000   1.0000   0.0000   0.0000   0.0000
     0.0000   0.0000   0.0000   0.0000   0.0000   0.0000   0.0000   0.0000
     0.0000   0.0000

          k = 0.4375 0.3125-0.1036 (  9305 PWs)   bands (ev):

  -101.2846-101.2846-100.9209 -59.2588 -59.2588 -59.2533 -59.2533 -58.9117
   -58.8610 -58.8602 -58.6983 -58.6983 -30.7494 -16.0814 -16.0698 -11.2731
   -11.1461 -10.9647  -6.9728  -6.8112  -6.6660  -6.6497  -6.5223  -6.3669
    -1.7178  -1.6853  -1.6003  -1.5272  -1.5008  -1.3656   3.5107   4.0153
     5.0660   5.1047   5.1107   5.1943   5.5851   6.1678   6.3879   6.4742
     6.7201   6.8203   6.8847   6.9228   7.6795   7.9088   7.9546   8.0480
     8.2700   8.3716   8.5073   8.7526   8.8140   8.9150   9.0723   9.1046
     9.1672   9.3033   9.4507   9.5268   9.6695  11.5418  11.6484  12.0846
    12.7161  13.7159  14.5232  15.0177  15.3616  15.3894  15.7316  16.5272
    16.6493  16.8331

     occupation numbers 
     1.0000   1.0000   1.0000   1.0000   1.0000   1.0000   1.0000   1.0000
     1.0000   1.0000   1.0000   1.0000   1.0000   1.0000   1.0000   1.0000
     1.0000   1.0000   1.0000   1.0000   1.0000   1.0000   1.0000   1.0000
     1.0000   1.0000   1.0000   1.0000   1.0000   1.0000   1.0000   1.0000
     1.0000   1.0000   1.0000   1.0000   1.0000   1.0000   1.0000   1.0000
     1.0000   1.0000   1.0000   1.0000   1.0000   1.0000   1.0000   1.0000
     1.0000   1.0000   1.0000   1.0000   1.0000   1.0000   1.0000   1.0000
     1.0000   1.0000   1.0000   1.0000   1.0000   0.0000   0.0000   0.0000
     0.0000   0.0000   0.0000   0.0000   0.0000   0.0000   0.0000   0.0000
     0.0000   0.0000

          k = 0.4375 0.3125-0.1450 (  9313 PWs)   bands (ev):

  -101.2846-101.2846-100.9209 -59.2588 -59.2588 -59.2533 -59.2533 -58.9117
   -58.8610 -58.8602 -58.6983 -58.6983 -30.7494 -16.0815 -16.0696 -11.2731
   -11.1461 -10.9647  -6.9823  -6.7735  -6.6897  -6.6617  -6.5188  -6.3629
    -1.7172  -1.6857  -1.5959  -1.5299  -1.4998  -1.3691   3.5202   3.9996
     5.0717   5.0963   5.1172   5.2042   5.5778   6.1703   6.3807   6.4827
     6.7390   6.8069   6.8620   6.9192   7.6935   7.9220   8.0295   8.0486
     8.2663   8.3560   8.4350   8.7547   8.8249   8.9125   9.0669   9.0956
     9.1674   9.2972   9.4567   9.5195   9.6676  11.5443  11.6469  12.1002
    12.7480  13.7412  14.5338  14.9434  15.2793  15.3838  15.7109  16.5805
    16.6009  16.8079

     occupation numbers 
     1.0000   1.0000   1.0000   1.0000   1.0000   1.0000   1.0000   1.0000
     1.0000   1.0000   1.0000   1.0000   1.0000   1.0000   1.0000   1.0000
     1.0000   1.0000   1.0000   1.0000   1.0000   1.0000   1.0000   1.0000
     1.0000   1.0000   1.0000   1.0000   1.0000   1.0000   1.0000   1.0000
     1.0000   1.0000   1.0000   1.0000   1.0000   1.0000   1.0000   1.0000
     1.0000   1.0000   1.0000   1.0000   1.0000   1.0000   1.0000   1.0000
     1.0000   1.0000   1.0000   1.0000   1.0000   1.0000   1.0000   1.0000
     1.0000   1.0000   1.0000   1.0000   1.0000   0.0000   0.0000   0.0000
     0.0000   0.0000   0.0000   0.0000   0.0000   0.0000   0.0000   0.0000
     0.0000   0.0000

     the Fermi energy is    10.3291 ev
     (compare with:    10.3720 eV, computed in scf)

     Writing all to output data dir ./YBCO6/YBCO6.save/
 
     init_run     :      0.62s CPU      0.80s WALL (       1 calls)
     electrons    :    152.75s CPU    155.12s WALL (       1 calls)

     Called by init_run:
     wfcinit      :      0.00s CPU      0.00s WALL (       1 calls)
     wfcinit:atom :      0.06s CPU      0.08s WALL (      64 calls)
     wfcinit:wfcr :      5.04s CPU      5.13s WALL (      64 calls)
     potinit      :      0.00s CPU      0.01s WALL (       1 calls)
     hinit0       :      0.21s CPU      0.21s WALL (       1 calls)

     Called by electrons:
     c_bands      :    152.63s CPU    155.00s WALL (       1 calls)
     v_of_rho     :      0.00s CPU      0.01s WALL (       1 calls)
     v_h          :      0.00s CPU      0.00s WALL (       1 calls)
     v_xc         :      0.00s CPU      0.00s WALL (       1 calls)
     newd         :      0.37s CPU      0.53s WALL (       1 calls)

     Called by c_bands:
     init_us_2    :      0.08s CPU      0.10s WALL (      64 calls)
     init_us_2:cp :      0.08s CPU      0.10s WALL (      64 calls)
     cegterg      :    146.16s CPU    148.28s WALL (     255 calls)

     Called by sum_band:

     Called by *egterg:
     cdiaghg      :     16.21s CPU     16.42s WALL (    4672 calls)
     cegterg:over :     14.09s CPU     14.38s WALL (    4608 calls)
     cegterg:upda :      7.84s CPU      7.90s WALL (    4608 calls)
     cegterg:last :     17.52s CPU     17.54s WALL (    1644 calls)
     h_psi        :     79.58s CPU     81.06s WALL (    4927 calls)
     s_psi        :     10.80s CPU     10.86s WALL (    4927 calls)
     g_psi        :      0.49s CPU      0.49s WALL (    4608 calls)

     Called by h_psi:
     h_psi:calbec :     11.53s CPU     11.77s WALL (    4927 calls)
     vloc_psi     :     55.55s CPU     56.63s WALL (    4927 calls)
     add_vuspsi   :     11.81s CPU     11.95s WALL (    4927 calls)

     General routines
     calbec       :     11.52s CPU     11.77s WALL (    4927 calls)
     fft          :      0.01s CPU      0.01s WALL (       6 calls)
     ffts         :      0.00s CPU      0.00s WALL (       1 calls)
     fftw         :     40.60s CPU     41.38s WALL (  266936 calls)
     interpolate  :      0.00s CPU      0.00s WALL (       1 calls)
     davcio       :      0.12s CPU      0.18s WALL (     128 calls)
 
     Parallel routines
 
     PWSCF        :   2m33.71s CPU   2m36.62s WALL

 
   This run was terminated on:   2:57:13  31Dec2023            

=------------------------------------------------------------------------------=
   JOB DONE.
=------------------------------------------------------------------------------=
