
     Program PWSCF v.7.2 starts on 29Dec2023 at 23:51: 5 

     This program is part of the open-source Quantum ESPRESSO suite
     for quantum simulation of materials; please cite
         "P. Giannozzi et al., J. Phys.:Condens. Matter 21 395502 (2009);
         "P. Giannozzi et al., J. Phys.:Condens. Matter 29 465901 (2017);
         "P. Giannozzi et al., J. Chem. Phys. 152 154105 (2020);
          URL http://www.quantum-espresso.org", 
     in publications or presentations arising from this work. More details at
     http://www.quantum-espresso.org/quote

     Parallel version (MPI), running on     4 processors

     MPI processes distributed on     1 nodes
     5348 MiB available memory on the printing compute node when the environment starts
 
     Waiting for input...
     Reading input from standard input

     Current dimensions of program PWSCF are:
     Max number of different atomic species (ntypx) = 10
     Max number of k-points (npk) =  40000
     Max angular momentum in pseudopotentials (lmaxx) =  4
     file Y.pz-spn-rrkjus_psl.1.0.0.UPF: wavefunction(s)  4S renormalized
     file Ba.pz-spn-rrkjus_psl.1.0.0.UPF: wavefunction(s)  5S 6S renormalized
     file Cu.pz-dn-rrkjus_psl.1.0.0.UPF: wavefunction(s)  3D renormalized
 
     R & G space division:  proc/nbgrp/npool/nimage =       4
     Subspace diagonalization in iterative solution of the eigenvalue problem:
     a serial algorithm will be used

 
     Parallelization info
     --------------------
     sticks:   dense  smooth     PW     G-vecs:    dense   smooth      PW
     Min         745     370     93                93979    33200    4147
     Max         746     371     94                93990    33217    4156
     Sum        2981    1481    373               375937   132821   16599
 
     Using Slab Decomposition
 


     bravais-lattice index     =            6
     lattice parameter (alat)  =       7.2264  a.u.
     unit-cell volume          =    1152.6629 (a.u.)^3
     number of atoms/cell      =           12
     number of atomic types    =            4
     number of electrons       =       100.00
     number of Kohn-Sham states=           60
     kinetic-energy cutoff     =      90.0000  Ry
     charge density cutoff     =     720.0000  Ry
     scf convergence threshold =      1.0E-08
     mixing beta               =       0.0500
     number of iterations used =            8  plain     mixing
     energy convergence thresh.=      1.0E-04
     force convergence thresh. =      1.0E-03
     press convergence thresh. =      5.0E-01
     Exchange-correlation= LDA
                           (   1   1   0   0   0   0   0)
     nstep                     =           50


     celldm(1)=   7.226353  celldm(2)=   0.000000  celldm(3)=   3.054532
     celldm(4)=   0.000000  celldm(5)=   0.000000  celldm(6)=   0.000000

     crystal axes: (cart. coord. in units of alat)
               a(1) = (   1.000000   0.000000   0.000000 )  
               a(2) = (   0.000000   1.000000   0.000000 )  
               a(3) = (   0.000000   0.000000   3.054532 )  

     reciprocal axes: (cart. coord. in units 2 pi/alat)
               b(1) = (  1.000000  0.000000  0.000000 )  
               b(2) = (  0.000000  1.000000  0.000000 )  
               b(3) = (  0.000000  0.000000  0.327382 )  


     PseudoPot. # 1 for Y  read from file:
     ~/q-e/pslibrary/pz/PSEUDOPOTENTIALS/Y.pz-spn-rrkjus_psl.1.0.0.UPF
     MD5 check sum: Not computed, couldn't open file
     Pseudo is Ultrasoft + core correction, Zval = 11.0
     Generated using 'atomic' code by A. Dal Corso  v.7.2
     Using radial grid of 1223 points,  6 beta functions with: 
                l(1) =   0
                l(2) =   0
                l(3) =   1
                l(4) =   1
                l(5) =   2
                l(6) =   2
     Q(r) pseudized with 0 coefficients 


     PseudoPot. # 2 for Ba read from file:
     ~/q-e/pslibrary/pz/PSEUDOPOTENTIALS/Ba.pz-spn-rrkjus_psl.1.0.0.UPF
     MD5 check sum: Not computed, couldn't open file
     Pseudo is Ultrasoft + core correction, Zval = 10.0
     Generated using 'atomic' code by A. Dal Corso  v.7.2
     Using radial grid of 1251 points,  7 beta functions with: 
                l(1) =   0
                l(2) =   0
                l(3) =   0
                l(4) =   1
                l(5) =   1
                l(6) =   2
                l(7) =   2
     Q(r) pseudized with 0 coefficients 


     PseudoPot. # 3 for Cu read from file:
     ~/q-e/pslibrary/pz/PSEUDOPOTENTIALS/Cu.pz-dn-rrkjus_psl.1.0.0.UPF
     MD5 check sum: Not computed, couldn't open file
     Pseudo is Ultrasoft + core correction, Zval = 11.0
     Generated using 'atomic' code by A. Dal Corso  v.7.2
     Using radial grid of 1199 points,  6 beta functions with: 
                l(1) =   0
                l(2) =   0
                l(3) =   1
                l(4) =   1
                l(5) =   2
                l(6) =   2
     Q(r) pseudized with 0 coefficients 


     PseudoPot. # 4 for O  read from file:
     ~/q-e/pslibrary/pz/PSEUDOPOTENTIALS/O.pz-n-rrkjus_psl.1.0.0.UPF
     MD5 check sum: Not computed, couldn't open file
     Pseudo is Ultrasoft + core correction, Zval =  6.0
     Generated using 'atomic' code by A. Dal Corso  v.7.2
     Using radial grid of 1095 points,  4 beta functions with: 
                l(1) =   0
                l(2) =   0
                l(3) =   1
                l(4) =   1
     Q(r) pseudized with 0 coefficients 


     atomic species   valence    mass     pseudopotential
     Y                11.00    88.90584     Y ( 1.00)
     Ba               10.00   137.32700     Ba( 1.00)
     Cu               11.00    63.54600     Cu( 1.00)
     O                 6.00    15.99900     O ( 1.00)

      8 Sym. Ops., with inversion, found


                                    s                        frac. trans.

      isym =  1     identity                                     

 cryst.   s( 1) = (     1          0          0      )
                  (     0          1          0      )
                  (     0          0          1      )

 cart.    s( 1) = (  1.0000000  0.0000000  0.0000000 )
                  (  0.0000000  1.0000000  0.0000000 )
                  (  0.0000000  0.0000000  1.0000000 )


      isym =  2     180 deg rotation - cart. axis [0,0,1]        

 cryst.   s( 2) = (    -1          0          0      )
                  (     0         -1          0      )
                  (     0          0          1      )

 cart.    s( 2) = ( -1.0000000  0.0000000  0.0000000 )
                  (  0.0000000 -1.0000000  0.0000000 )
                  (  0.0000000  0.0000000  1.0000000 )


      isym =  3     180 deg rotation - cart. axis [0,1,0]        

 cryst.   s( 3) = (    -1          0          0      )
                  (     0          1          0      )
                  (     0          0         -1      )

 cart.    s( 3) = ( -1.0000000  0.0000000  0.0000000 )
                  (  0.0000000  1.0000000  0.0000000 )
                  (  0.0000000  0.0000000 -1.0000000 )


      isym =  4     180 deg rotation - cart. axis [1,0,0]        

 cryst.   s( 4) = (     1          0          0      )
                  (     0         -1          0      )
                  (     0          0         -1      )

 cart.    s( 4) = (  1.0000000  0.0000000  0.0000000 )
                  (  0.0000000 -1.0000000  0.0000000 )
                  (  0.0000000  0.0000000 -1.0000000 )


      isym =  5     inversion                                    

 cryst.   s( 5) = (    -1          0          0      )
                  (     0         -1          0      )
                  (     0          0         -1      )

 cart.    s( 5) = ( -1.0000000  0.0000000  0.0000000 )
                  (  0.0000000 -1.0000000  0.0000000 )
                  (  0.0000000  0.0000000 -1.0000000 )


      isym =  6     inv. 180 deg rotation - cart. axis [0,0,1]   

 cryst.   s( 6) = (     1          0          0      )
                  (     0          1          0      )
                  (     0          0         -1      )

 cart.    s( 6) = (  1.0000000  0.0000000  0.0000000 )
                  (  0.0000000  1.0000000  0.0000000 )
                  (  0.0000000  0.0000000 -1.0000000 )


      isym =  7     inv. 180 deg rotation - cart. axis [0,1,0]   

 cryst.   s( 7) = (     1          0          0      )
                  (     0         -1          0      )
                  (     0          0          1      )

 cart.    s( 7) = (  1.0000000  0.0000000  0.0000000 )
                  (  0.0000000 -1.0000000  0.0000000 )
                  (  0.0000000  0.0000000  1.0000000 )


      isym =  8     inv. 180 deg rotation - cart. axis [1,0,0]   

 cryst.   s( 8) = (    -1          0          0      )
                  (     0          1          0      )
                  (     0          0          1      )

 cart.    s( 8) = ( -1.0000000  0.0000000  0.0000000 )
                  (  0.0000000  1.0000000  0.0000000 )
                  (  0.0000000  0.0000000  1.0000000 )


     point group D_2h (mmm) 
     there are  8 classes
     the character table:

       E     C2    C2'   C2''  i     s_v   s_v'  s_v''
A_g    1.00  1.00  1.00  1.00  1.00  1.00  1.00  1.00
B_1g   1.00  1.00 -1.00 -1.00  1.00  1.00 -1.00 -1.00
B_2g   1.00 -1.00  1.00 -1.00  1.00 -1.00  1.00 -1.00
B_3g   1.00 -1.00 -1.00  1.00  1.00 -1.00 -1.00  1.00
A_u    1.00  1.00  1.00  1.00 -1.00 -1.00 -1.00 -1.00
B_1u   1.00  1.00 -1.00 -1.00 -1.00 -1.00  1.00  1.00
B_2u   1.00 -1.00  1.00 -1.00 -1.00  1.00 -1.00  1.00
B_3u   1.00 -1.00 -1.00  1.00 -1.00  1.00  1.00 -1.00

     the symmetry operations in each class and the name of the first element:

     E        1
          identity                                               
     C2       2
          180 deg rotation - cart. axis [0,0,1]                  
     C2'      4
          180 deg rotation - cart. axis [1,0,0]                  
     C2''     3
          180 deg rotation - cart. axis [0,1,0]                  
     i        5
          inversion                                              
     s_v      6
          inv. 180 deg rotation - cart. axis [0,0,1]             
     s_v'     8
          inv. 180 deg rotation - cart. axis [1,0,0]             
     s_v''    7
          inv. 180 deg rotation - cart. axis [0,1,0]             

   Cartesian axes

     site n.     atom                  positions (alat units)
         1        Y      tau(   1) = (   0.5000000   0.5000000   1.5272661  )
         2        Ba     tau(   2) = (   0.5000000   0.5000000   0.5684391  )
         3        Ba     tau(   3) = (   0.5000000   0.5000000   2.4860930  )
         4        Cu     tau(   4) = (   0.0000000   0.0000000   0.0000000  )
         5        Cu     tau(   5) = (   0.0000000   0.0000000   1.0903646  )
         6        Cu     tau(   6) = (   0.0000000   0.0000000   1.9641676  )
         7        O      tau(   7) = (   0.5000000   0.0000000   1.1518692  )
         8        O      tau(   8) = (   0.5000000   0.0000000   1.9026629  )
         9        O      tau(   9) = (   0.0000000   0.5000000   1.1485454  )
        10        O      tau(  10) = (   0.0000000   0.5000000   1.9059868  )
        11        O      tau(  11) = (   0.0000000   0.0000000   0.4762684  )
        12        O      tau(  12) = (   0.0000000   0.0000000   2.5782637  )

   Crystallographic axes

     site n.     atom                  positions (cryst. coord.)
         1        Y      tau(   1) = (  0.5000000  0.5000000  0.5000000  )
         2        Ba     tau(   2) = (  0.5000000  0.5000000  0.1860969  )
         3        Ba     tau(   3) = (  0.5000000  0.5000000  0.8139031  )
         4        Cu     tau(   4) = (  0.0000000  0.0000000  0.0000000  )
         5        Cu     tau(   5) = (  0.0000000  0.0000000  0.3569661  )
         6        Cu     tau(   6) = (  0.0000000  0.0000000  0.6430339  )
         7        O      tau(   7) = (  0.5000000  0.0000000  0.3771017  )
         8        O      tau(   8) = (  0.5000000  0.0000000  0.6228983  )
         9        O      tau(   9) = (  0.0000000  0.5000000  0.3760135  )
        10        O      tau(  10) = (  0.0000000  0.5000000  0.6239865  )
        11        O      tau(  11) = (  0.0000000  0.0000000  0.1559219  )
        12        O      tau(  12) = (  0.0000000  0.0000000  0.8440781  )

     number of k points=     1  Methfessel-Paxton smearing, width (Ry)=  0.0500
                       cart. coord. in units 2pi/alat
        k(    1) = (   0.0000000   0.0000000   0.0000000), wk =   2.0000000

                       cryst. coord.
        k(    1) = (   0.0000000   0.0000000   0.0000000), wk =   2.0000000

     Dense  grid:   375937 G-vectors     FFT dimensions: (  64,  64, 192)

     Smooth grid:   132821 G-vectors     FFT dimensions: (  45,  45, 135)

     Dynamical RAM for                 wfc:       3.80 MB

     Dynamical RAM for     wfc (w. buffer):       3.80 MB

     Dynamical RAM for           str. fact:       5.74 MB

     Dynamical RAM for           local pot:       0.00 MB

     Dynamical RAM for          nlocal pot:      10.01 MB

     Dynamical RAM for                qrad:      22.96 MB

     Dynamical RAM for          rho,v,vnew:       8.80 MB

     Dynamical RAM for               rhoin:       2.93 MB

     Dynamical RAM for            rho*nmix:      22.95 MB

     Dynamical RAM for           G-vectors:       5.63 MB

     Dynamical RAM for          h,s,v(r/c):       0.66 MB

     Dynamical RAM for          <psi|beta>:       0.14 MB

     Dynamical RAM for                 psi:       7.61 MB

     Dynamical RAM for                hpsi:       7.61 MB

     Dynamical RAM for                spsi:       7.61 MB

     Dynamical RAM for      wfcinit/wfcrot:       9.51 MB

     Dynamical RAM for           addusdens:     302.61 MB

     Dynamical RAM for          addusforce:     317.69 MB

     Dynamical RAM for         addusstress:     315.51 MB

     Estimated static dynamical RAM per process >      74.55 MB

     Estimated max dynamical RAM per process >     415.19 MB

     Estimated total dynamical RAM >       1.62 GB

     Initial potential from superposition of free atoms

     starting charge      99.9671, renormalised to     100.0000
     Starting wfcs are   74 randomized atomic wfcs

     total cpu time spent up to now is        2.1 secs

     Self-consistent Calculation

     iteration #  1     ecut=    90.00 Ry     beta= 0.05
     Davidson diagonalization with overlap

---- Real-time Memory Report at c_bands before calling an iterative solver
           456 MiB given to the printing process from OS
             0 MiB allocation reported by mallinfo(arena+hblkhd)
          4891 MiB available memory on the node where the printing process lives
------------------
     ethr =  1.00E-02,  avg # of iterations =  2.0

     total cpu time spent up to now is        3.7 secs

     total energy              =    -771.65749001 Ry
     estimated scf accuracy    <       5.60519067 Ry

     iteration #  2     ecut=    90.00 Ry     beta= 0.05
     Davidson diagonalization with overlap

---- Real-time Memory Report at c_bands before calling an iterative solver
           505 MiB given to the printing process from OS
             0 MiB allocation reported by mallinfo(arena+hblkhd)
          4773 MiB available memory on the node where the printing process lives
------------------
     ethr =  5.61E-03,  avg # of iterations =  2.0

     total cpu time spent up to now is        5.3 secs

     total energy              =    -771.70470676 Ry
     estimated scf accuracy    <      67.54915715 Ry

     iteration #  3     ecut=    90.00 Ry     beta= 0.05
     Davidson diagonalization with overlap

---- Real-time Memory Report at c_bands before calling an iterative solver
           509 MiB given to the printing process from OS
             0 MiB allocation reported by mallinfo(arena+hblkhd)
          4763 MiB available memory on the node where the printing process lives
------------------
     ethr =  5.61E-03,  avg # of iterations =  2.0

     total cpu time spent up to now is        6.9 secs

     total energy              =    -771.35854539 Ry
     estimated scf accuracy    <      11.28592307 Ry

     iteration #  4     ecut=    90.00 Ry     beta= 0.05
     Davidson diagonalization with overlap

---- Real-time Memory Report at c_bands before calling an iterative solver
           510 MiB given to the printing process from OS
             0 MiB allocation reported by mallinfo(arena+hblkhd)
          4760 MiB available memory on the node where the printing process lives
------------------
     ethr =  5.61E-03,  avg # of iterations =  2.0

     total cpu time spent up to now is        8.5 secs

     total energy              =    -771.25180290 Ry
     estimated scf accuracy    <      97.02337071 Ry

     iteration #  5     ecut=    90.00 Ry     beta= 0.05
     Davidson diagonalization with overlap

---- Real-time Memory Report at c_bands before calling an iterative solver
           511 MiB given to the printing process from OS
             0 MiB allocation reported by mallinfo(arena+hblkhd)
          4756 MiB available memory on the node where the printing process lives
------------------
     ethr =  5.61E-03,  avg # of iterations =  2.0

     total cpu time spent up to now is       10.1 secs

     total energy              =    -770.85899707 Ry
     estimated scf accuracy    <      27.72145670 Ry

     iteration #  6     ecut=    90.00 Ry     beta= 0.05
     Davidson diagonalization with overlap

---- Real-time Memory Report at c_bands before calling an iterative solver
           513 MiB given to the printing process from OS
             0 MiB allocation reported by mallinfo(arena+hblkhd)
          4748 MiB available memory on the node where the printing process lives
------------------
     ethr =  5.61E-03,  avg # of iterations =  2.0
     Minimization algorithm failed to find Fermi energy: reverting to bisection
     Possible cause: smearing is larger than the electronic band-gap.

     total cpu time spent up to now is       11.7 secs

     total energy              =    -771.10545025 Ry
     estimated scf accuracy    <       8.72884269 Ry

     iteration #  7     ecut=    90.00 Ry     beta= 0.05
     Davidson diagonalization with overlap

---- Real-time Memory Report at c_bands before calling an iterative solver
           514 MiB given to the printing process from OS
             0 MiB allocation reported by mallinfo(arena+hblkhd)
          4746 MiB available memory on the node where the printing process lives
------------------
     ethr =  5.61E-03,  avg # of iterations =  1.0

     total cpu time spent up to now is       13.3 secs

     total energy              =    -771.10729609 Ry
     estimated scf accuracy    <       1.92361324 Ry

     iteration #  8     ecut=    90.00 Ry     beta= 0.05
     Davidson diagonalization with overlap

---- Real-time Memory Report at c_bands before calling an iterative solver
           515 MiB given to the printing process from OS
             0 MiB allocation reported by mallinfo(arena+hblkhd)
          4741 MiB available memory on the node where the printing process lives
------------------
     ethr =  1.92E-03,  avg # of iterations =  7.0

     total cpu time spent up to now is       14.9 secs

     total energy              =    -771.02355355 Ry
     estimated scf accuracy    <       1.27360763 Ry

     iteration #  9     ecut=    90.00 Ry     beta= 0.05
     Davidson diagonalization with overlap

---- Real-time Memory Report at c_bands before calling an iterative solver
           516 MiB given to the printing process from OS
             0 MiB allocation reported by mallinfo(arena+hblkhd)
          4734 MiB available memory on the node where the printing process lives
------------------
     ethr =  1.27E-03,  avg # of iterations =  2.0

     total cpu time spent up to now is       16.5 secs

     total energy              =    -771.17633833 Ry
     estimated scf accuracy    <       6.86198096 Ry

     iteration # 10     ecut=    90.00 Ry     beta= 0.05
     Davidson diagonalization with overlap

---- Real-time Memory Report at c_bands before calling an iterative solver
           517 MiB given to the printing process from OS
             0 MiB allocation reported by mallinfo(arena+hblkhd)
          4730 MiB available memory on the node where the printing process lives
------------------
     ethr =  1.27E-03,  avg # of iterations =  1.0

     total cpu time spent up to now is       18.1 secs

     total energy              =    -770.92262772 Ry
     estimated scf accuracy    <       6.47269556 Ry

     iteration # 11     ecut=    90.00 Ry     beta= 0.05
     Davidson diagonalization with overlap

---- Real-time Memory Report at c_bands before calling an iterative solver
           518 MiB given to the printing process from OS
             0 MiB allocation reported by mallinfo(arena+hblkhd)
          4731 MiB available memory on the node where the printing process lives
------------------
     ethr =  1.27E-03,  avg # of iterations =  6.0

     total cpu time spent up to now is       19.7 secs

     total energy              =    -771.16798619 Ry
     estimated scf accuracy    <      34.37606499 Ry

     iteration # 12     ecut=    90.00 Ry     beta= 0.05
     Davidson diagonalization with overlap

---- Real-time Memory Report at c_bands before calling an iterative solver
           518 MiB given to the printing process from OS
             0 MiB allocation reported by mallinfo(arena+hblkhd)
          4729 MiB available memory on the node where the printing process lives
------------------
     ethr =  1.27E-03,  avg # of iterations =  1.0
     Minimization algorithm failed to find Fermi energy: reverting to bisection
     Possible cause: smearing is larger than the electronic band-gap.

     total cpu time spent up to now is       21.3 secs

     total energy              =    -771.09442976 Ry
     estimated scf accuracy    <      30.62772188 Ry

     iteration # 13     ecut=    90.00 Ry     beta= 0.05
     Davidson diagonalization with overlap

---- Real-time Memory Report at c_bands before calling an iterative solver
           518 MiB given to the printing process from OS
             0 MiB allocation reported by mallinfo(arena+hblkhd)
          4731 MiB available memory on the node where the printing process lives
------------------
     ethr =  1.27E-03,  avg # of iterations =  3.0

     total cpu time spent up to now is       22.9 secs

     total energy              =    -771.10124218 Ry
     estimated scf accuracy    <       8.33460944 Ry

     iteration # 14     ecut=    90.00 Ry     beta= 0.05
     Davidson diagonalization with overlap

---- Real-time Memory Report at c_bands before calling an iterative solver
           518 MiB given to the printing process from OS
             0 MiB allocation reported by mallinfo(arena+hblkhd)
          4727 MiB available memory on the node where the printing process lives
------------------
     ethr =  1.27E-03,  avg # of iterations =  2.0

     total cpu time spent up to now is       24.5 secs

     total energy              =    -771.08356030 Ry
     estimated scf accuracy    <       2.97454098 Ry

     iteration # 15     ecut=    90.00 Ry     beta= 0.05
     Davidson diagonalization with overlap

---- Real-time Memory Report at c_bands before calling an iterative solver
           518 MiB given to the printing process from OS
             0 MiB allocation reported by mallinfo(arena+hblkhd)
          4727 MiB available memory on the node where the printing process lives
------------------
     ethr =  1.27E-03,  avg # of iterations =  4.0

     total cpu time spent up to now is       26.1 secs

     total energy              =    -771.07826481 Ry
     estimated scf accuracy    <       3.69734081 Ry

     iteration # 16     ecut=    90.00 Ry     beta= 0.05
     Davidson diagonalization with overlap

---- Real-time Memory Report at c_bands before calling an iterative solver
           518 MiB given to the printing process from OS
             0 MiB allocation reported by mallinfo(arena+hblkhd)
          4725 MiB available memory on the node where the printing process lives
------------------
     ethr =  1.27E-03,  avg # of iterations =  1.0

     total cpu time spent up to now is       27.7 secs

     total energy              =    -771.06911607 Ry
     estimated scf accuracy    <       2.33747431 Ry

     iteration # 17     ecut=    90.00 Ry     beta= 0.05
     Davidson diagonalization with overlap

---- Real-time Memory Report at c_bands before calling an iterative solver
           518 MiB given to the printing process from OS
             0 MiB allocation reported by mallinfo(arena+hblkhd)
          4730 MiB available memory on the node where the printing process lives
------------------
     ethr =  1.27E-03,  avg # of iterations =  1.0

     total cpu time spent up to now is       29.2 secs

     total energy              =    -771.06593288 Ry
     estimated scf accuracy    <       1.82452670 Ry

     iteration # 18     ecut=    90.00 Ry     beta= 0.05
     Davidson diagonalization with overlap

---- Real-time Memory Report at c_bands before calling an iterative solver
           518 MiB given to the printing process from OS
             0 MiB allocation reported by mallinfo(arena+hblkhd)
          4730 MiB available memory on the node where the printing process lives
------------------
     ethr =  1.27E-03,  avg # of iterations =  1.0

     total cpu time spent up to now is       30.8 secs

     total energy              =    -771.07861136 Ry
     estimated scf accuracy    <       0.64517347 Ry

     iteration # 19     ecut=    90.00 Ry     beta= 0.05
     Davidson diagonalization with overlap

---- Real-time Memory Report at c_bands before calling an iterative solver
           518 MiB given to the printing process from OS
             0 MiB allocation reported by mallinfo(arena+hblkhd)
          4728 MiB available memory on the node where the printing process lives
------------------
     ethr =  6.45E-04,  avg # of iterations =  2.0

     total cpu time spent up to now is       32.4 secs

     total energy              =    -771.08064707 Ry
     estimated scf accuracy    <       0.03051727 Ry

     iteration # 20     ecut=    90.00 Ry     beta= 0.05
     Davidson diagonalization with overlap

---- Real-time Memory Report at c_bands before calling an iterative solver
           518 MiB given to the printing process from OS
             0 MiB allocation reported by mallinfo(arena+hblkhd)
          4729 MiB available memory on the node where the printing process lives
------------------
     ethr =  3.05E-05,  avg # of iterations = 16.0

     total cpu time spent up to now is       34.1 secs

     total energy              =    -771.07587310 Ry
     estimated scf accuracy    <       0.48341703 Ry

     iteration # 21     ecut=    90.00 Ry     beta= 0.05
     Davidson diagonalization with overlap

---- Real-time Memory Report at c_bands before calling an iterative solver
           518 MiB given to the printing process from OS
             0 MiB allocation reported by mallinfo(arena+hblkhd)
          4735 MiB available memory on the node where the printing process lives
------------------
     ethr =  3.05E-05,  avg # of iterations =  6.0

     total cpu time spent up to now is       35.8 secs

     total energy              =    -771.07723086 Ry
     estimated scf accuracy    <       1.16794621 Ry

     iteration # 22     ecut=    90.00 Ry     beta= 0.05
     Davidson diagonalization with overlap

---- Real-time Memory Report at c_bands before calling an iterative solver
           518 MiB given to the printing process from OS
             0 MiB allocation reported by mallinfo(arena+hblkhd)
          4729 MiB available memory on the node where the printing process lives
------------------
     ethr =  3.05E-05,  avg # of iterations =  6.0

     total cpu time spent up to now is       37.4 secs

     total energy              =    -771.08163001 Ry
     estimated scf accuracy    <       0.25506056 Ry

     iteration # 23     ecut=    90.00 Ry     beta= 0.05
     Davidson diagonalization with overlap

---- Real-time Memory Report at c_bands before calling an iterative solver
           518 MiB given to the printing process from OS
             0 MiB allocation reported by mallinfo(arena+hblkhd)
          4733 MiB available memory on the node where the printing process lives
------------------
     ethr =  3.05E-05,  avg # of iterations =  2.0

     total cpu time spent up to now is       39.0 secs

     total energy              =    -771.08166643 Ry
     estimated scf accuracy    <       0.04820510 Ry

     iteration # 24     ecut=    90.00 Ry     beta= 0.05
     Davidson diagonalization with overlap

---- Real-time Memory Report at c_bands before calling an iterative solver
           518 MiB given to the printing process from OS
             0 MiB allocation reported by mallinfo(arena+hblkhd)
          4739 MiB available memory on the node where the printing process lives
------------------
     ethr =  3.05E-05,  avg # of iterations =  2.0

     total cpu time spent up to now is       40.6 secs

     total energy              =    -771.08192726 Ry
     estimated scf accuracy    <       0.01430105 Ry

     iteration # 25     ecut=    90.00 Ry     beta= 0.05
     Davidson diagonalization with overlap

---- Real-time Memory Report at c_bands before calling an iterative solver
           518 MiB given to the printing process from OS
             0 MiB allocation reported by mallinfo(arena+hblkhd)
          4733 MiB available memory on the node where the printing process lives
------------------
     ethr =  1.43E-05,  avg # of iterations =  1.0

     total cpu time spent up to now is       42.1 secs

     total energy              =    -771.08196613 Ry
     estimated scf accuracy    <       0.00121596 Ry

     iteration # 26     ecut=    90.00 Ry     beta= 0.05
     Davidson diagonalization with overlap

---- Real-time Memory Report at c_bands before calling an iterative solver
           518 MiB given to the printing process from OS
             0 MiB allocation reported by mallinfo(arena+hblkhd)
          4738 MiB available memory on the node where the printing process lives
------------------
     ethr =  1.22E-06,  avg # of iterations =  6.0

     total cpu time spent up to now is       43.8 secs

     total energy              =    -771.08206779 Ry
     estimated scf accuracy    <       0.02081987 Ry

     iteration # 27     ecut=    90.00 Ry     beta= 0.05
     Davidson diagonalization with overlap

---- Real-time Memory Report at c_bands before calling an iterative solver
           518 MiB given to the printing process from OS
             0 MiB allocation reported by mallinfo(arena+hblkhd)
          4736 MiB available memory on the node where the printing process lives
------------------
     ethr =  1.22E-06,  avg # of iterations =  2.0

     total cpu time spent up to now is       45.4 secs

     total energy              =    -771.08194957 Ry
     estimated scf accuracy    <       0.01749012 Ry

     iteration # 28     ecut=    90.00 Ry     beta= 0.05
     Davidson diagonalization with overlap

---- Real-time Memory Report at c_bands before calling an iterative solver
           518 MiB given to the printing process from OS
             0 MiB allocation reported by mallinfo(arena+hblkhd)
          4738 MiB available memory on the node where the printing process lives
------------------
     ethr =  1.22E-06,  avg # of iterations =  5.0

     total cpu time spent up to now is       47.0 secs

     total energy              =    -771.08204499 Ry
     estimated scf accuracy    <       0.01202520 Ry

     iteration # 29     ecut=    90.00 Ry     beta= 0.05
     Davidson diagonalization with overlap

---- Real-time Memory Report at c_bands before calling an iterative solver
           518 MiB given to the printing process from OS
             0 MiB allocation reported by mallinfo(arena+hblkhd)
          4739 MiB available memory on the node where the printing process lives
------------------
     ethr =  1.22E-06,  avg # of iterations =  2.0

     total cpu time spent up to now is       48.6 secs

     total energy              =    -771.08210211 Ry
     estimated scf accuracy    <       0.01940686 Ry

     iteration # 30     ecut=    90.00 Ry     beta= 0.05
     Davidson diagonalization with overlap

---- Real-time Memory Report at c_bands before calling an iterative solver
           518 MiB given to the printing process from OS
             0 MiB allocation reported by mallinfo(arena+hblkhd)
          4738 MiB available memory on the node where the printing process lives
------------------
     ethr =  1.22E-06,  avg # of iterations =  6.0

     total cpu time spent up to now is       50.3 secs

     total energy              =    -771.08221644 Ry
     estimated scf accuracy    <       0.06996768 Ry

     iteration # 31     ecut=    90.00 Ry     beta= 0.05
     Davidson diagonalization with overlap

---- Real-time Memory Report at c_bands before calling an iterative solver
           518 MiB given to the printing process from OS
             0 MiB allocation reported by mallinfo(arena+hblkhd)
          4733 MiB available memory on the node where the printing process lives
------------------
     ethr =  1.22E-06,  avg # of iterations =  1.0

     total cpu time spent up to now is       51.9 secs

     total energy              =    -771.08219180 Ry
     estimated scf accuracy    <       0.06570307 Ry

     iteration # 32     ecut=    90.00 Ry     beta= 0.05
     Davidson diagonalization with overlap

---- Real-time Memory Report at c_bands before calling an iterative solver
           518 MiB given to the printing process from OS
             0 MiB allocation reported by mallinfo(arena+hblkhd)
          4733 MiB available memory on the node where the printing process lives
------------------
     ethr =  1.22E-06,  avg # of iterations =  1.0

     total cpu time spent up to now is       53.4 secs

     total energy              =    -771.08218366 Ry
     estimated scf accuracy    <       0.06011032 Ry

     iteration # 33     ecut=    90.00 Ry     beta= 0.05
     Davidson diagonalization with overlap

---- Real-time Memory Report at c_bands before calling an iterative solver
           518 MiB given to the printing process from OS
             0 MiB allocation reported by mallinfo(arena+hblkhd)
          4736 MiB available memory on the node where the printing process lives
------------------
     ethr =  1.22E-06,  avg # of iterations =  1.0

     total cpu time spent up to now is       55.0 secs

     total energy              =    -771.08196748 Ry
     estimated scf accuracy    <       0.05886499 Ry

     iteration # 34     ecut=    90.00 Ry     beta= 0.05
     Davidson diagonalization with overlap

---- Real-time Memory Report at c_bands before calling an iterative solver
           518 MiB given to the printing process from OS
             0 MiB allocation reported by mallinfo(arena+hblkhd)
          4736 MiB available memory on the node where the printing process lives
------------------
     ethr =  1.22E-06,  avg # of iterations =  6.0

     total cpu time spent up to now is       56.7 secs

     total energy              =    -771.08201360 Ry
     estimated scf accuracy    <       0.00881431 Ry

     iteration # 35     ecut=    90.00 Ry     beta= 0.05
     Davidson diagonalization with overlap

---- Real-time Memory Report at c_bands before calling an iterative solver
           518 MiB given to the printing process from OS
             0 MiB allocation reported by mallinfo(arena+hblkhd)
          4737 MiB available memory on the node where the printing process lives
------------------
     ethr =  1.22E-06,  avg # of iterations =  2.0

     total cpu time spent up to now is       58.3 secs

     total energy              =    -771.08199620 Ry
     estimated scf accuracy    <       0.00765667 Ry

     iteration # 36     ecut=    90.00 Ry     beta= 0.05
     Davidson diagonalization with overlap

---- Real-time Memory Report at c_bands before calling an iterative solver
           518 MiB given to the printing process from OS
             0 MiB allocation reported by mallinfo(arena+hblkhd)
          4738 MiB available memory on the node where the printing process lives
------------------
     ethr =  1.22E-06,  avg # of iterations =  5.0

     total cpu time spent up to now is       59.9 secs

     total energy              =    -771.08203600 Ry
     estimated scf accuracy    <       0.03804117 Ry

     iteration # 37     ecut=    90.00 Ry     beta= 0.05
     Davidson diagonalization with overlap

---- Real-time Memory Report at c_bands before calling an iterative solver
           518 MiB given to the printing process from OS
             0 MiB allocation reported by mallinfo(arena+hblkhd)
          4737 MiB available memory on the node where the printing process lives
------------------
     ethr =  1.22E-06,  avg # of iterations =  1.0

     total cpu time spent up to now is       61.5 secs

     total energy              =    -771.08201317 Ry
     estimated scf accuracy    <       0.03264506 Ry

     iteration # 38     ecut=    90.00 Ry     beta= 0.05
     Davidson diagonalization with overlap

---- Real-time Memory Report at c_bands before calling an iterative solver
           518 MiB given to the printing process from OS
             0 MiB allocation reported by mallinfo(arena+hblkhd)
          4741 MiB available memory on the node where the printing process lives
------------------
     ethr =  1.22E-06,  avg # of iterations =  3.0

     total cpu time spent up to now is       63.1 secs

     total energy              =    -771.08204719 Ry
     estimated scf accuracy    <       0.01411406 Ry

     iteration # 39     ecut=    90.00 Ry     beta= 0.05
     Davidson diagonalization with overlap

---- Real-time Memory Report at c_bands before calling an iterative solver
           518 MiB given to the printing process from OS
             0 MiB allocation reported by mallinfo(arena+hblkhd)
          4738 MiB available memory on the node where the printing process lives
------------------
     ethr =  1.22E-06,  avg # of iterations =  6.0

     total cpu time spent up to now is       64.7 secs

     total energy              =    -771.08211635 Ry
     estimated scf accuracy    <       0.02291581 Ry

     iteration # 40     ecut=    90.00 Ry     beta= 0.05
     Davidson diagonalization with overlap

---- Real-time Memory Report at c_bands before calling an iterative solver
           518 MiB given to the printing process from OS
             0 MiB allocation reported by mallinfo(arena+hblkhd)
          4740 MiB available memory on the node where the printing process lives
------------------
     ethr =  1.22E-06,  avg # of iterations =  1.0

     total cpu time spent up to now is       66.3 secs

     total energy              =    -771.08212011 Ry
     estimated scf accuracy    <       0.02508138 Ry

     iteration # 41     ecut=    90.00 Ry     beta= 0.05
     Davidson diagonalization with overlap

---- Real-time Memory Report at c_bands before calling an iterative solver
           518 MiB given to the printing process from OS
             0 MiB allocation reported by mallinfo(arena+hblkhd)
          4736 MiB available memory on the node where the printing process lives
------------------
     ethr =  1.22E-06,  avg # of iterations =  1.0

     total cpu time spent up to now is       67.9 secs

     total energy              =    -771.08209706 Ry
     estimated scf accuracy    <       0.02677845 Ry

     iteration # 42     ecut=    90.00 Ry     beta= 0.05
     Davidson diagonalization with overlap

---- Real-time Memory Report at c_bands before calling an iterative solver
           518 MiB given to the printing process from OS
             0 MiB allocation reported by mallinfo(arena+hblkhd)
          4736 MiB available memory on the node where the printing process lives
------------------
     ethr =  1.22E-06,  avg # of iterations =  1.0

     total cpu time spent up to now is       69.5 secs

     total energy              =    -771.08204084 Ry
     estimated scf accuracy    <       0.02507601 Ry

     iteration # 43     ecut=    90.00 Ry     beta= 0.05
     Davidson diagonalization with overlap

---- Real-time Memory Report at c_bands before calling an iterative solver
           518 MiB given to the printing process from OS
             0 MiB allocation reported by mallinfo(arena+hblkhd)
          4735 MiB available memory on the node where the printing process lives
------------------
     ethr =  1.22E-06,  avg # of iterations =  2.0

     total cpu time spent up to now is       71.0 secs

     total energy              =    -771.08203615 Ry
     estimated scf accuracy    <       0.01861217 Ry

     iteration # 44     ecut=    90.00 Ry     beta= 0.05
     Davidson diagonalization with overlap

---- Real-time Memory Report at c_bands before calling an iterative solver
           518 MiB given to the printing process from OS
             0 MiB allocation reported by mallinfo(arena+hblkhd)
          4734 MiB available memory on the node where the printing process lives
------------------
     ethr =  1.22E-06,  avg # of iterations =  1.0

     total cpu time spent up to now is       72.6 secs

     total energy              =    -771.08205669 Ry
     estimated scf accuracy    <       0.01704586 Ry

     iteration # 45     ecut=    90.00 Ry     beta= 0.05
     Davidson diagonalization with overlap

---- Real-time Memory Report at c_bands before calling an iterative solver
           518 MiB given to the printing process from OS
             0 MiB allocation reported by mallinfo(arena+hblkhd)
          4735 MiB available memory on the node where the printing process lives
------------------
     ethr =  1.22E-06,  avg # of iterations =  1.0

     total cpu time spent up to now is       74.2 secs

     total energy              =    -771.08202820 Ry
     estimated scf accuracy    <       0.01889076 Ry

     iteration # 46     ecut=    90.00 Ry     beta= 0.05
     Davidson diagonalization with overlap

---- Real-time Memory Report at c_bands before calling an iterative solver
           518 MiB given to the printing process from OS
             0 MiB allocation reported by mallinfo(arena+hblkhd)
          4730 MiB available memory on the node where the printing process lives
------------------
     ethr =  1.22E-06,  avg # of iterations =  1.0

     total cpu time spent up to now is       75.8 secs

     total energy              =    -771.08187693 Ry
     estimated scf accuracy    <       0.01670252 Ry

     iteration # 47     ecut=    90.00 Ry     beta= 0.05
     Davidson diagonalization with overlap

---- Real-time Memory Report at c_bands before calling an iterative solver
           518 MiB given to the printing process from OS
             0 MiB allocation reported by mallinfo(arena+hblkhd)
          4736 MiB available memory on the node where the printing process lives
------------------
     ethr =  1.22E-06,  avg # of iterations =  7.0

     total cpu time spent up to now is       77.4 secs

     total energy              =    -771.08193376 Ry
     estimated scf accuracy    <       0.05800250 Ry

     iteration # 48     ecut=    90.00 Ry     beta= 0.05
     Davidson diagonalization with overlap

---- Real-time Memory Report at c_bands before calling an iterative solver
           518 MiB given to the printing process from OS
             0 MiB allocation reported by mallinfo(arena+hblkhd)
          4735 MiB available memory on the node where the printing process lives
------------------
     ethr =  1.22E-06,  avg # of iterations =  6.0

     total cpu time spent up to now is       79.1 secs

     total energy              =    -771.08204895 Ry
     estimated scf accuracy    <       0.00283785 Ry

     iteration # 49     ecut=    90.00 Ry     beta= 0.05
     Davidson diagonalization with overlap

---- Real-time Memory Report at c_bands before calling an iterative solver
           518 MiB given to the printing process from OS
             0 MiB allocation reported by mallinfo(arena+hblkhd)
          4736 MiB available memory on the node where the printing process lives
------------------
     ethr =  1.22E-06,  avg # of iterations =  2.0

     total cpu time spent up to now is       80.6 secs

     total energy              =    -771.08203004 Ry
     estimated scf accuracy    <       0.00983239 Ry

     iteration # 50     ecut=    90.00 Ry     beta= 0.05
     Davidson diagonalization with overlap

---- Real-time Memory Report at c_bands before calling an iterative solver
           518 MiB given to the printing process from OS
             0 MiB allocation reported by mallinfo(arena+hblkhd)
          4734 MiB available memory on the node where the printing process lives
------------------
     ethr =  1.22E-06,  avg # of iterations =  1.0

     total cpu time spent up to now is       82.2 secs

     total energy              =    -771.08197742 Ry
     estimated scf accuracy    <       0.00590963 Ry

     iteration # 51     ecut=    90.00 Ry     beta= 0.05
     Davidson diagonalization with overlap

---- Real-time Memory Report at c_bands before calling an iterative solver
           518 MiB given to the printing process from OS
             0 MiB allocation reported by mallinfo(arena+hblkhd)
          4743 MiB available memory on the node where the printing process lives
------------------
     ethr =  1.22E-06,  avg # of iterations =  2.0

     total cpu time spent up to now is       83.8 secs

     total energy              =    -771.08201041 Ry
     estimated scf accuracy    <       0.00017711 Ry

     iteration # 52     ecut=    90.00 Ry     beta= 0.05
     Davidson diagonalization with overlap

---- Real-time Memory Report at c_bands before calling an iterative solver
           518 MiB given to the printing process from OS
             0 MiB allocation reported by mallinfo(arena+hblkhd)
          4735 MiB available memory on the node where the printing process lives
------------------
     ethr =  1.77E-07,  avg # of iterations =  4.0

     total cpu time spent up to now is       85.4 secs

     total energy              =    -771.08201834 Ry
     estimated scf accuracy    <       0.00020896 Ry

     iteration # 53     ecut=    90.00 Ry     beta= 0.05
     Davidson diagonalization with overlap

---- Real-time Memory Report at c_bands before calling an iterative solver
           518 MiB given to the printing process from OS
             0 MiB allocation reported by mallinfo(arena+hblkhd)
          4740 MiB available memory on the node where the printing process lives
------------------
     ethr =  1.77E-07,  avg # of iterations =  1.0

     total cpu time spent up to now is       87.0 secs

     total energy              =    -771.08201733 Ry
     estimated scf accuracy    <       0.00024346 Ry

     iteration # 54     ecut=    90.00 Ry     beta= 0.05
     Davidson diagonalization with overlap

---- Real-time Memory Report at c_bands before calling an iterative solver
           518 MiB given to the printing process from OS
             0 MiB allocation reported by mallinfo(arena+hblkhd)
          4738 MiB available memory on the node where the printing process lives
------------------
     ethr =  1.77E-07,  avg # of iterations =  1.0

     total cpu time spent up to now is       88.6 secs

     total energy              =    -771.08201363 Ry
     estimated scf accuracy    <       0.00014552 Ry

     iteration # 55     ecut=    90.00 Ry     beta= 0.05
     Davidson diagonalization with overlap

---- Real-time Memory Report at c_bands before calling an iterative solver
           518 MiB given to the printing process from OS
             0 MiB allocation reported by mallinfo(arena+hblkhd)
          4737 MiB available memory on the node where the printing process lives
------------------
     ethr =  1.46E-07,  avg # of iterations =  4.0

     total cpu time spent up to now is       90.2 secs

     total energy              =    -771.08201816 Ry
     estimated scf accuracy    <       0.00056473 Ry

     iteration # 56     ecut=    90.00 Ry     beta= 0.05
     Davidson diagonalization with overlap

---- Real-time Memory Report at c_bands before calling an iterative solver
           518 MiB given to the printing process from OS
             0 MiB allocation reported by mallinfo(arena+hblkhd)
          4734 MiB available memory on the node where the printing process lives
------------------
     ethr =  1.46E-07,  avg # of iterations =  1.0

     total cpu time spent up to now is       91.8 secs

     total energy              =    -771.08201730 Ry
     estimated scf accuracy    <       0.00053385 Ry

     iteration # 57     ecut=    90.00 Ry     beta= 0.05
     Davidson diagonalization with overlap

---- Real-time Memory Report at c_bands before calling an iterative solver
           518 MiB given to the printing process from OS
             0 MiB allocation reported by mallinfo(arena+hblkhd)
          4732 MiB available memory on the node where the printing process lives
------------------
     ethr =  1.46E-07,  avg # of iterations =  1.0

     total cpu time spent up to now is       93.3 secs

     total energy              =    -771.08201737 Ry
     estimated scf accuracy    <       0.00028352 Ry

     iteration # 58     ecut=    90.00 Ry     beta= 0.05
     Davidson diagonalization with overlap

---- Real-time Memory Report at c_bands before calling an iterative solver
           518 MiB given to the printing process from OS
             0 MiB allocation reported by mallinfo(arena+hblkhd)
          4737 MiB available memory on the node where the printing process lives
------------------
     ethr =  1.46E-07,  avg # of iterations =  1.0

     total cpu time spent up to now is       94.9 secs

     total energy              =    -771.08201737 Ry
     estimated scf accuracy    <       0.00025482 Ry

     iteration # 59     ecut=    90.00 Ry     beta= 0.05
     Davidson diagonalization with overlap

---- Real-time Memory Report at c_bands before calling an iterative solver
           518 MiB given to the printing process from OS
             0 MiB allocation reported by mallinfo(arena+hblkhd)
          4734 MiB available memory on the node where the printing process lives
------------------
     ethr =  1.46E-07,  avg # of iterations =  1.0

     total cpu time spent up to now is       96.5 secs

     total energy              =    -771.08201715 Ry
     estimated scf accuracy    <       0.00022017 Ry

     iteration # 60     ecut=    90.00 Ry     beta= 0.05
     Davidson diagonalization with overlap

---- Real-time Memory Report at c_bands before calling an iterative solver
           518 MiB given to the printing process from OS
             0 MiB allocation reported by mallinfo(arena+hblkhd)
          4732 MiB available memory on the node where the printing process lives
------------------
     ethr =  1.46E-07,  avg # of iterations =  1.0

     total cpu time spent up to now is       98.0 secs

     total energy              =    -771.08201730 Ry
     estimated scf accuracy    <       0.00014927 Ry

     iteration # 61     ecut=    90.00 Ry     beta= 0.05
     Davidson diagonalization with overlap

---- Real-time Memory Report at c_bands before calling an iterative solver
           518 MiB given to the printing process from OS
             0 MiB allocation reported by mallinfo(arena+hblkhd)
          4735 MiB available memory on the node where the printing process lives
------------------
     ethr =  1.46E-07,  avg # of iterations =  1.0

     total cpu time spent up to now is       99.6 secs

     total energy              =    -771.08201705 Ry
     estimated scf accuracy    <       0.00015112 Ry

     iteration # 62     ecut=    90.00 Ry     beta= 0.05
     Davidson diagonalization with overlap

---- Real-time Memory Report at c_bands before calling an iterative solver
           518 MiB given to the printing process from OS
             0 MiB allocation reported by mallinfo(arena+hblkhd)
          4734 MiB available memory on the node where the printing process lives
------------------
     ethr =  1.46E-07,  avg # of iterations =  1.0

     total cpu time spent up to now is      101.2 secs

     total energy              =    -771.08201663 Ry
     estimated scf accuracy    <       0.00008794 Ry

     iteration # 63     ecut=    90.00 Ry     beta= 0.05
     Davidson diagonalization with overlap

---- Real-time Memory Report at c_bands before calling an iterative solver
           518 MiB given to the printing process from OS
             0 MiB allocation reported by mallinfo(arena+hblkhd)
          4730 MiB available memory on the node where the printing process lives
------------------
     ethr =  8.79E-08,  avg # of iterations =  1.0

     total cpu time spent up to now is      102.7 secs

     total energy              =    -771.08201682 Ry
     estimated scf accuracy    <       0.00000843 Ry

     iteration # 64     ecut=    90.00 Ry     beta= 0.05
     Davidson diagonalization with overlap

---- Real-time Memory Report at c_bands before calling an iterative solver
           518 MiB given to the printing process from OS
             0 MiB allocation reported by mallinfo(arena+hblkhd)
          4732 MiB available memory on the node where the printing process lives
------------------
     ethr =  8.43E-09,  avg # of iterations =  6.0

     total cpu time spent up to now is      104.4 secs

     total energy              =    -771.08201692 Ry
     estimated scf accuracy    <       0.00011562 Ry

     iteration # 65     ecut=    90.00 Ry     beta= 0.05
     Davidson diagonalization with overlap

---- Real-time Memory Report at c_bands before calling an iterative solver
           518 MiB given to the printing process from OS
             0 MiB allocation reported by mallinfo(arena+hblkhd)
          4728 MiB available memory on the node where the printing process lives
------------------
     ethr =  8.43E-09,  avg # of iterations =  2.0

     total cpu time spent up to now is      106.0 secs

     total energy              =    -771.08201679 Ry
     estimated scf accuracy    <       0.00004500 Ry

     iteration # 66     ecut=    90.00 Ry     beta= 0.05
     Davidson diagonalization with overlap

---- Real-time Memory Report at c_bands before calling an iterative solver
           518 MiB given to the printing process from OS
             0 MiB allocation reported by mallinfo(arena+hblkhd)
          4726 MiB available memory on the node where the printing process lives
------------------
     ethr =  8.43E-09,  avg # of iterations =  4.0

     total cpu time spent up to now is      107.6 secs

     total energy              =    -771.08201704 Ry
     estimated scf accuracy    <       0.00000983 Ry

     iteration # 67     ecut=    90.00 Ry     beta= 0.05
     Davidson diagonalization with overlap

---- Real-time Memory Report at c_bands before calling an iterative solver
           518 MiB given to the printing process from OS
             0 MiB allocation reported by mallinfo(arena+hblkhd)
          4727 MiB available memory on the node where the printing process lives
------------------
     ethr =  8.43E-09,  avg # of iterations =  2.0

     total cpu time spent up to now is      109.1 secs

     total energy              =    -771.08201709 Ry
     estimated scf accuracy    <       0.00000116 Ry

     iteration # 68     ecut=    90.00 Ry     beta= 0.05
     Davidson diagonalization with overlap

---- Real-time Memory Report at c_bands before calling an iterative solver
           518 MiB given to the printing process from OS
             0 MiB allocation reported by mallinfo(arena+hblkhd)
          4723 MiB available memory on the node where the printing process lives
------------------
     ethr =  1.16E-09,  avg # of iterations =  7.0

     total cpu time spent up to now is      110.8 secs

     total energy              =    -771.08201640 Ry
     estimated scf accuracy    <       0.00015938 Ry

     iteration # 69     ecut=    90.00 Ry     beta= 0.05
     Davidson diagonalization with overlap

---- Real-time Memory Report at c_bands before calling an iterative solver
           518 MiB given to the printing process from OS
             0 MiB allocation reported by mallinfo(arena+hblkhd)
          4726 MiB available memory on the node where the printing process lives
------------------
     ethr =  1.16E-09,  avg # of iterations =  7.0

     total cpu time spent up to now is      112.5 secs

     total energy              =    -771.08201725 Ry
     estimated scf accuracy    <       0.00001035 Ry

     iteration # 70     ecut=    90.00 Ry     beta= 0.05
     Davidson diagonalization with overlap

---- Real-time Memory Report at c_bands before calling an iterative solver
           518 MiB given to the printing process from OS
             0 MiB allocation reported by mallinfo(arena+hblkhd)
          4727 MiB available memory on the node where the printing process lives
------------------
     ethr =  1.16E-09,  avg # of iterations =  6.0

     total cpu time spent up to now is      114.1 secs

     total energy              =    -771.08201722 Ry
     estimated scf accuracy    <       0.00007624 Ry

     iteration # 71     ecut=    90.00 Ry     beta= 0.05
     Davidson diagonalization with overlap

---- Real-time Memory Report at c_bands before calling an iterative solver
           518 MiB given to the printing process from OS
             0 MiB allocation reported by mallinfo(arena+hblkhd)
          4730 MiB available memory on the node where the printing process lives
------------------
     ethr =  1.16E-09,  avg # of iterations =  2.0

     total cpu time spent up to now is      115.8 secs

     total energy              =    -771.08201693 Ry
     estimated scf accuracy    <       0.00005675 Ry

     iteration # 72     ecut=    90.00 Ry     beta= 0.05
     Davidson diagonalization with overlap

---- Real-time Memory Report at c_bands before calling an iterative solver
           518 MiB given to the printing process from OS
             0 MiB allocation reported by mallinfo(arena+hblkhd)
          4723 MiB available memory on the node where the printing process lives
------------------
     ethr =  1.16E-09,  avg # of iterations =  7.0

     total cpu time spent up to now is      117.4 secs

     total energy              =    -771.08201711 Ry
     estimated scf accuracy    <       0.00000006 Ry

     iteration # 73     ecut=    90.00 Ry     beta= 0.05
     Davidson diagonalization with overlap

---- Real-time Memory Report at c_bands before calling an iterative solver
           518 MiB given to the printing process from OS
             0 MiB allocation reported by mallinfo(arena+hblkhd)
          4733 MiB available memory on the node where the printing process lives
------------------
     ethr =  6.05E-11,  avg # of iterations =  7.0

     total cpu time spent up to now is      119.0 secs

     total energy              =    -771.08201712 Ry
     estimated scf accuracy    <       0.00000238 Ry

     iteration # 74     ecut=    90.00 Ry     beta= 0.05
     Davidson diagonalization with overlap

---- Real-time Memory Report at c_bands before calling an iterative solver
           518 MiB given to the printing process from OS
             0 MiB allocation reported by mallinfo(arena+hblkhd)
          4733 MiB available memory on the node where the printing process lives
------------------
     ethr =  6.05E-11,  avg # of iterations =  1.0

     total cpu time spent up to now is      120.6 secs

     total energy              =    -771.08201709 Ry
     estimated scf accuracy    <       0.00000220 Ry

     iteration # 75     ecut=    90.00 Ry     beta= 0.05
     Davidson diagonalization with overlap

---- Real-time Memory Report at c_bands before calling an iterative solver
           518 MiB given to the printing process from OS
             0 MiB allocation reported by mallinfo(arena+hblkhd)
          4734 MiB available memory on the node where the printing process lives
------------------
     ethr =  6.05E-11,  avg # of iterations =  7.0

     total cpu time spent up to now is      122.2 secs

     total energy              =    -771.08201709 Ry
     estimated scf accuracy    <       0.00000451 Ry

     iteration # 76     ecut=    90.00 Ry     beta= 0.05
     Davidson diagonalization with overlap

---- Real-time Memory Report at c_bands before calling an iterative solver
           518 MiB given to the printing process from OS
             0 MiB allocation reported by mallinfo(arena+hblkhd)
          4729 MiB available memory on the node where the printing process lives
------------------
     ethr =  6.05E-11,  avg # of iterations =  8.0

     total cpu time spent up to now is      123.9 secs

     total energy              =    -771.08201711 Ry
     estimated scf accuracy    <       0.00000092 Ry

     iteration # 77     ecut=    90.00 Ry     beta= 0.05
     Davidson diagonalization with overlap

---- Real-time Memory Report at c_bands before calling an iterative solver
           518 MiB given to the printing process from OS
             0 MiB allocation reported by mallinfo(arena+hblkhd)
          4730 MiB available memory on the node where the printing process lives
------------------
     ethr =  6.05E-11,  avg # of iterations =  4.0

     total cpu time spent up to now is      125.5 secs

     total energy              =    -771.08201712 Ry
     estimated scf accuracy    <       0.00000010 Ry

     iteration # 78     ecut=    90.00 Ry     beta= 0.05
     Davidson diagonalization with overlap

---- Real-time Memory Report at c_bands before calling an iterative solver
           518 MiB given to the printing process from OS
             0 MiB allocation reported by mallinfo(arena+hblkhd)
          4728 MiB available memory on the node where the printing process lives
------------------
     ethr =  6.05E-11,  avg # of iterations =  2.0

     total cpu time spent up to now is      127.1 secs

     total energy              =    -771.08201712 Ry
     estimated scf accuracy    <       0.00000004 Ry

     iteration # 79     ecut=    90.00 Ry     beta= 0.05
     Davidson diagonalization with overlap

---- Real-time Memory Report at c_bands before calling an iterative solver
           518 MiB given to the printing process from OS
             0 MiB allocation reported by mallinfo(arena+hblkhd)
          4727 MiB available memory on the node where the printing process lives
------------------
     ethr =  3.59E-11,  avg # of iterations =  4.0

     total cpu time spent up to now is      128.7 secs

     total energy              =    -771.08201712 Ry
     estimated scf accuracy    <       0.00000010 Ry

     iteration # 80     ecut=    90.00 Ry     beta= 0.05
     Davidson diagonalization with overlap

---- Real-time Memory Report at c_bands before calling an iterative solver
           518 MiB given to the printing process from OS
             0 MiB allocation reported by mallinfo(arena+hblkhd)
          4727 MiB available memory on the node where the printing process lives
------------------
     ethr =  3.59E-11,  avg # of iterations =  2.0

     total cpu time spent up to now is      130.3 secs

     total energy              =    -771.08201712 Ry
     estimated scf accuracy    <       0.00000004 Ry

     iteration # 81     ecut=    90.00 Ry     beta= 0.05
     Davidson diagonalization with overlap

---- Real-time Memory Report at c_bands before calling an iterative solver
           518 MiB given to the printing process from OS
             0 MiB allocation reported by mallinfo(arena+hblkhd)
          4727 MiB available memory on the node where the printing process lives
------------------
     ethr =  3.59E-11,  avg # of iterations =  1.0

     total cpu time spent up to now is      131.8 secs

     End of self-consistent calculation

          k = 0.0000 0.0000 0.0000 ( 16599 PWs)   bands (ev):

   -30.7739 -16.7314 -16.7173 -11.3573 -10.7993 -10.7969  -7.7937  -7.1191
    -6.8827  -6.7728  -6.4473  -6.1792  -2.0881  -1.7963  -1.6032  -1.6006
    -1.5906  -1.5880   4.3640   5.2796   5.3823   5.3860   5.7995   5.8280
     5.8913   5.8918   6.1146   6.4380   6.4490   6.5485   6.7533   7.4114
     7.7332   7.7337   7.8314   7.8340   7.8536   7.8862   7.9217   8.0104
     8.0271   8.3023   8.5697   8.5881   9.0024   9.0904   9.0972   9.1108
     9.1336   9.1439   9.2795  11.6849  12.2817  12.6710  12.9187  14.2620
    14.6112  14.7036  14.7078  15.3517

     occupation numbers 
     1.0000   1.0000   1.0000   1.0000   1.0000   1.0000   1.0000   1.0000
     1.0000   1.0000   1.0000   1.0000   1.0000   1.0000   1.0000   1.0000
     1.0000   1.0000   1.0000   1.0000   1.0000   1.0000   1.0000   1.0000
     1.0000   1.0000   1.0000   1.0000   1.0000   1.0000   1.0000   1.0001
     1.0012   1.0012   1.0022   1.0022   1.0025   1.0030   1.0036   1.0059
     1.0064   1.0202   1.0352   1.0354   0.9348   0.8728   0.8673   0.8561
     0.8363   0.8270   0.6868  -0.0000  -0.0000  -0.0000  -0.0000  -0.0000
    -0.0000  -0.0000  -0.0000  -0.0000

     the Fermi energy is     9.4340 ev

!    total energy              =    -771.08201712 Ry
     estimated scf accuracy    <          1.1E-09 Ry
     smearing contrib. (-TS)   =      -0.02211876 Ry
     internal energy E=F+TS    =    -771.05989835 Ry

     The total energy is F=E-TS. E is the sum of the following terms:
     one-electron contribution =    -339.89345168 Ry
     hartree contribution      =     260.88591444 Ry
     xc contribution           =    -234.53634677 Ry
     ewald contribution        =    -457.51601434 Ry

     convergence has been achieved in  81 iterations

     Forces acting on atoms (cartesian axes, Ry/au):

     atom    1 type  1   force =     0.00000000    0.00000000    0.00000000
     atom    2 type  2   force =     0.00000000    0.00000000    0.15280931
     atom    3 type  2   force =     0.00000000    0.00000000   -0.15280931
     atom    4 type  3   force =     0.00000000    0.00000000    0.00000000
     atom    5 type  3   force =     0.00000000    0.00000000    0.03900406
     atom    6 type  3   force =     0.00000000    0.00000000   -0.03900406
     atom    7 type  4   force =     0.00000000    0.00000000   -0.00447103
     atom    8 type  4   force =     0.00000000    0.00000000    0.00447103
     atom    9 type  4   force =     0.00000000    0.00000000   -0.00554601
     atom   10 type  4   force =     0.00000000    0.00000000    0.00554601
     atom   11 type  4   force =     0.00000000    0.00000000   -0.09707060
     atom   12 type  4   force =     0.00000000    0.00000000    0.09707060
     The non-local contrib.  to forces
     atom    1 type  1   force =     0.00000000    0.00000000    0.00000000
     atom    2 type  2   force =     0.00000000    0.00000000   -0.10130946
     atom    3 type  2   force =     0.00000000    0.00000000    0.10130946
     atom    4 type  3   force =     0.00000000    0.00000000    0.00000000
     atom    5 type  3   force =     0.00000000    0.00000000    0.09220565
     atom    6 type  3   force =     0.00000000    0.00000000   -0.09220565
     atom    7 type  4   force =     0.00000000    0.00000000   -0.09125008
     atom    8 type  4   force =     0.00000000    0.00000000    0.09125008
     atom    9 type  4   force =     0.00000000    0.00000000   -0.07332558
     atom   10 type  4   force =     0.00000000    0.00000000    0.07332558
     atom   11 type  4   force =     0.00000000    0.00000000   -0.64823809
     atom   12 type  4   force =     0.00000000    0.00000000    0.64823809
     The ionic contribution  to forces
     atom    1 type  1   force =     0.00000000    0.00000000    0.00000000
     atom    2 type  2   force =    -0.00000000    0.00000000  -20.18072406
     atom    3 type  2   force =    -0.00000000   -0.00000000   20.18072406
     atom    4 type  3   force =     0.00000000    0.00000000    0.00000000
     atom    5 type  3   force =    -0.00000000   -0.00000000  -17.75947701
     atom    6 type  3   force =    -0.00000000   -0.00000000   17.75947701
     atom    7 type  4   force =     0.00000000   -0.00000000   -8.69088000
     atom    8 type  4   force =     0.00000000    0.00000000    8.69088000
     atom    9 type  4   force =     0.00000000    0.00000000   -8.75378161
     atom   10 type  4   force =    -0.00000000    0.00000000    8.75378161
     atom   11 type  4   force =    -0.00000000    0.00000000   -6.42390914
     atom   12 type  4   force =     0.00000000   -0.00000000    6.42390914
     The local contribution  to forces
     atom    1 type  1   force =     0.00000000    0.00000000    0.00000000
     atom    2 type  2   force =     0.00000000    0.00000000   20.42467293
     atom    3 type  2   force =     0.00000000    0.00000000  -20.42467293
     atom    4 type  3   force =    -0.00000000   -0.00000000   -0.00000000
     atom    5 type  3   force =    -0.00000000    0.00000000   17.68385142
     atom    6 type  3   force =    -0.00000000   -0.00000000  -17.68385142
     atom    7 type  4   force =     0.00000000    0.00000000    8.77591230
     atom    8 type  4   force =    -0.00000000    0.00000000   -8.77591230
     atom    9 type  4   force =    -0.00000000    0.00000000    8.82005508
     atom   10 type  4   force =    -0.00000000   -0.00000000   -8.82005508
     atom   11 type  4   force =    -0.00000000    0.00000000    6.96981949
     atom   12 type  4   force =     0.00000000   -0.00000000   -6.96981949
     The core correction contribution to forces
     atom    1 type  1   force =    -0.00000000   -0.00000000   -0.00000000
     atom    2 type  2   force =    -0.00000000   -0.00000000    0.01017437
     atom    3 type  2   force =     0.00000000    0.00000000   -0.01017437
     atom    4 type  3   force =    -0.00000000    0.00000000   -0.00000000
     atom    5 type  3   force =    -0.00000000    0.00000000    0.02242665
     atom    6 type  3   force =     0.00000000    0.00000000   -0.02242665
     atom    7 type  4   force =     0.00000000   -0.00000000    0.00175222
     atom    8 type  4   force =    -0.00000000    0.00000000   -0.00175222
     atom    9 type  4   force =    -0.00000000   -0.00000000    0.00151281
     atom   10 type  4   force =     0.00000000   -0.00000000   -0.00151281
     atom   11 type  4   force =    -0.00000000    0.00000000    0.00525059
     atom   12 type  4   force =    -0.00000000    0.00000000   -0.00525059
     The Hubbard contrib.    to forces
     atom    1 type  1   force =     0.00000000    0.00000000    0.00000000
     atom    2 type  2   force =     0.00000000    0.00000000    0.00000000
     atom    3 type  2   force =     0.00000000    0.00000000    0.00000000
     atom    4 type  3   force =     0.00000000    0.00000000    0.00000000
     atom    5 type  3   force =     0.00000000    0.00000000    0.00000000
     atom    6 type  3   force =     0.00000000    0.00000000    0.00000000
     atom    7 type  4   force =     0.00000000    0.00000000    0.00000000
     atom    8 type  4   force =     0.00000000    0.00000000    0.00000000
     atom    9 type  4   force =     0.00000000    0.00000000    0.00000000
     atom   10 type  4   force =     0.00000000    0.00000000    0.00000000
     atom   11 type  4   force =     0.00000000    0.00000000    0.00000000
     atom   12 type  4   force =     0.00000000    0.00000000    0.00000000
     The SCF correction term to forces
     atom    1 type  1   force =    -0.00000000    0.00000000    0.00000000
     atom    2 type  2   force =    -0.00000000    0.00000000   -0.00000446
     atom    3 type  2   force =    -0.00000000   -0.00000000    0.00000446
     atom    4 type  3   force =     0.00000000    0.00000000   -0.00000000
     atom    5 type  3   force =    -0.00000000   -0.00000000   -0.00000266
     atom    6 type  3   force =     0.00000000    0.00000000    0.00000266
     atom    7 type  4   force =    -0.00000000    0.00000000   -0.00000548
     atom    8 type  4   force =     0.00000000   -0.00000000    0.00000548
     atom    9 type  4   force =    -0.00000000    0.00000000   -0.00000670
     atom   10 type  4   force =    -0.00000000   -0.00000000    0.00000670
     atom   11 type  4   force =    -0.00000000    0.00000000    0.00000654
     atom   12 type  4   force =     0.00000000   -0.00000000   -0.00000654

     Total force =     0.262089     Total SCF correction =     0.000017


     Computing stress (Cartesian axis) and pressure

          total   stress  (Ry/bohr**3)                   (kbar)     P=       34.44
   0.00097398   0.00000000   0.00000000          143.28        0.00        0.00
   0.00000000   0.00096264   0.00000000            0.00      141.61        0.00
   0.00000000   0.00000000  -0.00123425            0.00        0.00     -181.56

     kinetic stress (kbar)  19472.70      0.00      0.00
                                0.00  19483.69      0.00
                                0.00      0.00  18684.80

     local   stress (kbar) -20520.36     -0.00      0.00
                               -0.00 -20680.85      0.00
                                0.00      0.00  18082.30

     nonloc. stress (kbar)   2879.51      0.00      0.00
                                0.00   2881.82      0.00
                                0.00      0.00   2884.71

     hartree stress (kbar)  17211.70     -0.00      0.00
                               -0.00  17271.39     -0.00
                                0.00     -0.00  -1188.32

     exc-cor stress (kbar)   8329.93      0.00      0.00
                                0.00   8329.93      0.00
                                0.00      0.00   8329.93

     corecor stress (kbar) -14324.61     -0.00     -0.00
                               -0.00 -14325.75     -0.00
                               -0.00     -0.00 -14310.10

     ewald   stress (kbar) -12905.59     -0.00      0.00
                               -0.00 -12818.62      0.00
                                0.00      0.00 -32664.87

     hubbard stress (kbar)      0.00      0.00      0.00
                                0.00      0.00      0.00
                                0.00      0.00      0.00

     DFT-D   stress (kbar)      0.00      0.00      0.00
                                0.00      0.00      0.00
                                0.00      0.00      0.00

     XDM     stress (kbar)      0.00      0.00      0.00
                                0.00      0.00      0.00
                                0.00      0.00      0.00

     dft-nl  stress (kbar)      0.00      0.00      0.00
                                0.00      0.00      0.00
                                0.00      0.00      0.00

     TS-vdW  stress (kbar)      0.00      0.00      0.00
                                0.00      0.00      0.00
                                0.00      0.00      0.00

     MDB     stress (kbar)      0.00      0.00      0.00
                                0.00      0.00      0.00
                                0.00      0.00      0.00

     3D-RISM stress (kbar)      0.00      0.00      0.00
                                0.00      0.00      0.00
                                0.00      0.00      0.00


     BFGS Geometry Optimization
     Energy error            =      0.0E+00 Ry
     Gradient error          =      1.5E-01 Ry/Bohr
     Cell gradient error     =      1.8E+02 kbar

     number of scf cycles    =   1
     number of bfgs steps    =   0

     enthalpy           new  =    -771.0820171158 Ry

     new trust radius        =       0.2095193501 bohr
     new conv_thr            =       0.0000000100 Ry

     new unit-cell volume =   1171.83531 a.u.^3 (   173.64808 Ang^3 )
     density =      6.21757 g/cm^3

CELL_PARAMETERS (alat=  7.22635344)
   1.024349486   0.000000000   0.000000000
   0.000000000   1.024065951   0.000000000
   0.000000000   0.000000000   2.960280763

ATOMIC_POSITIONS (crystal)
Y                0.5000000000        0.5000000000        0.5000000000
Ba               0.5000000000        0.5000000000        0.1930198091
Ba               0.5000000000        0.5000000000        0.8069801909
Cu               0.0000000000        0.0000000000        0.0000000000
Cu               0.0000000000        0.0000000000        0.3587331821
Cu               0.0000000000        0.0000000000        0.6412668179
O                0.5000000000        0.0000000000        0.3768991302
O                0.5000000000        0.0000000000        0.6231008698
O                0.0000000000        0.5000000000        0.3757622588
O                0.0000000000        0.5000000000        0.6242377412
O                0.0000000000        0.0000000000        0.1515242074
O                0.0000000000        0.0000000000        0.8484757926



     Writing config-only to output data dir ./YBCO.vc-relax/YBCO.vc-relax.save/
     NEW-OLD atomic charge density approx. for the potential

     total cpu time spent up to now is      140.3 secs

     Self-consistent Calculation

     iteration #  1     ecut=    90.00 Ry     beta= 0.05
     Davidson diagonalization with overlap

---- Real-time Memory Report at c_bands before calling an iterative solver
          1144 MiB given to the printing process from OS
             0 MiB allocation reported by mallinfo(arena+hblkhd)
          4779 MiB available memory on the node where the printing process lives
------------------
     ethr =  1.00E-06,  avg # of iterations = 15.0

     total cpu time spent up to now is      143.1 secs

     total energy              =    -771.05063219 Ry
     estimated scf accuracy    <       3.03241349 Ry

     iteration #  2     ecut=    90.00 Ry     beta= 0.05
     Davidson diagonalization with overlap

---- Real-time Memory Report at c_bands before calling an iterative solver
          1144 MiB given to the printing process from OS
             0 MiB allocation reported by mallinfo(arena+hblkhd)
          4605 MiB available memory on the node where the printing process lives
------------------
     ethr =  3.03E-03,  avg # of iterations =  3.0

     total cpu time spent up to now is      144.8 secs

     total energy              =    -770.82289584 Ry
     estimated scf accuracy    <     527.55380432 Ry

     iteration #  3     ecut=    90.00 Ry     beta= 0.05
     Davidson diagonalization with overlap

---- Real-time Memory Report at c_bands before calling an iterative solver
          1144 MiB given to the printing process from OS
             0 MiB allocation reported by mallinfo(arena+hblkhd)
          4731 MiB available memory on the node where the printing process lives
------------------
     ethr =  3.03E-03,  avg # of iterations =  4.0

     total cpu time spent up to now is      146.5 secs

     total energy              =    -771.14225812 Ry
     estimated scf accuracy    <      24.11839005 Ry

     iteration #  4     ecut=    90.00 Ry     beta= 0.05
     Davidson diagonalization with overlap

---- Real-time Memory Report at c_bands before calling an iterative solver
          1144 MiB given to the printing process from OS
             0 MiB allocation reported by mallinfo(arena+hblkhd)
          4724 MiB available memory on the node where the printing process lives
------------------
     ethr =  3.03E-03,  avg # of iterations =  2.0

     total cpu time spent up to now is      148.1 secs

     total energy              =    -771.18105516 Ry
     estimated scf accuracy    <       1.58006533 Ry

     iteration #  5     ecut=    90.00 Ry     beta= 0.05
[...]
------------------
     ethr =  2.94E-11,  avg # of iterations =  1.0

     negative rho (up, down):  4.001E-03 0.000E+00

     total cpu time spent up to now is     1939.7 secs

     total energy              =    -771.46229961 Ry
     estimated scf accuracy    <       0.00000003 Ry

     iteration # 84     ecut=    90.00 Ry     beta= 0.05
     Davidson diagonalization with overlap

---- Real-time Memory Report at c_bands before calling an iterative solver
          1193 MiB given to the printing process from OS
             0 MiB allocation reported by mallinfo(arena+hblkhd)
          4585 MiB available memory on the node where the printing process lives
------------------
     ethr =  2.94E-11,  avg # of iterations =  2.0

     negative rho (up, down):  4.001E-03 0.000E+00

     total cpu time spent up to now is     1941.3 secs

     total energy              =    -771.46229961 Ry
     estimated scf accuracy    <          3.6E-10 Ry

     iteration # 85     ecut=    90.00 Ry     beta= 0.05
     Davidson diagonalization with overlap

---- Real-time Memory Report at c_bands before calling an iterative solver
          1193 MiB given to the printing process from OS
             0 MiB allocation reported by mallinfo(arena+hblkhd)
          4585 MiB available memory on the node where the printing process lives
------------------
     ethr =  3.57E-13,  avg # of iterations =  8.0

     negative rho (up, down):  4.001E-03 0.000E+00

     total cpu time spent up to now is     1942.9 secs

     total energy              =    -771.46229961 Ry
     estimated scf accuracy    <       0.00000004 Ry

     iteration # 86     ecut=    90.00 Ry     beta= 0.05
     Davidson diagonalization with overlap

---- Real-time Memory Report at c_bands before calling an iterative solver
          1193 MiB given to the printing process from OS
             0 MiB allocation reported by mallinfo(arena+hblkhd)
          4587 MiB available memory on the node where the printing process lives
------------------
     ethr =  3.57E-13,  avg # of iterations =  8.0

     negative rho (up, down):  4.001E-03 0.000E+00

     total cpu time spent up to now is     1944.6 secs

     total energy              =    -771.46229961 Ry
     estimated scf accuracy    <          5.4E-09 Ry

     iteration # 87     ecut=    90.00 Ry     beta= 0.05
     Davidson diagonalization with overlap

---- Real-time Memory Report at c_bands before calling an iterative solver
          1193 MiB given to the printing process from OS
             0 MiB allocation reported by mallinfo(arena+hblkhd)
          4589 MiB available memory on the node where the printing process lives
------------------
     ethr =  3.57E-13,  avg # of iterations =  6.0

     negative rho (up, down):  4.001E-03 0.000E+00

     total cpu time spent up to now is     1946.2 secs

     total energy              =    -771.46229961 Ry
     estimated scf accuracy    <       0.00000003 Ry

     iteration # 88     ecut=    90.00 Ry     beta= 0.05
     Davidson diagonalization with overlap

---- Real-time Memory Report at c_bands before calling an iterative solver
          1193 MiB given to the printing process from OS
             0 MiB allocation reported by mallinfo(arena+hblkhd)
          4586 MiB available memory on the node where the printing process lives
------------------
     ethr =  3.57E-13,  avg # of iterations =  5.0

     negative rho (up, down):  4.001E-03 0.000E+00

     total cpu time spent up to now is     1947.8 secs

     total energy              =    -771.46229961 Ry
     estimated scf accuracy    <          8.7E-09 Ry

     iteration # 89     ecut=    90.00 Ry     beta= 0.05
     Davidson diagonalization with overlap

---- Real-time Memory Report at c_bands before calling an iterative solver
          1193 MiB given to the printing process from OS
             0 MiB allocation reported by mallinfo(arena+hblkhd)
          4592 MiB available memory on the node where the printing process lives
------------------
     ethr =  3.57E-13,  avg # of iterations =  6.0

     negative rho (up, down):  4.001E-03 0.000E+00

     total cpu time spent up to now is     1949.5 secs

     total energy              =    -771.46229961 Ry
     estimated scf accuracy    <          4.3E-10 Ry

     iteration # 90     ecut=    90.00 Ry     beta= 0.05
     Davidson diagonalization with overlap

---- Real-time Memory Report at c_bands before calling an iterative solver
          1193 MiB given to the printing process from OS
             0 MiB allocation reported by mallinfo(arena+hblkhd)
          4590 MiB available memory on the node where the printing process lives
------------------
     ethr =  3.57E-13,  avg # of iterations =  2.0

     negative rho (up, down):  4.001E-03 0.000E+00

     total cpu time spent up to now is     1951.0 secs

     End of self-consistent calculation

          k = 0.0000 0.0000 0.0000 ( 16511 PWs)   bands (ev):

   -31.8643 -16.0790 -15.9795 -12.3724 -11.8029 -11.8025  -8.1968  -7.9007
    -7.7271  -7.1666  -6.9821  -6.7104  -1.2032  -1.2026  -1.1471  -1.1465
    -1.1216  -0.7451   2.9454   4.7487   4.7489   4.9867   5.4209   5.5887
     5.5896   5.8801   5.8815   6.0300   6.1576   6.2269   6.2370   6.6526
     6.6529   7.4352   7.4372   7.6149   7.6276   7.6947   7.6955   7.6972
     7.7247   7.8326   7.8347   8.1534   8.3933   8.3947   8.5900   8.6016
     8.8821   8.9349   8.9354  11.4693  11.8164  13.9933  14.1799  14.3093
    15.4094  15.4527  16.0134  16.0141

     occupation numbers 
     1.0000   1.0000   1.0000   1.0000   1.0000   1.0000   1.0000   1.0000
     1.0000   1.0000   1.0000   1.0000   1.0000   1.0000   1.0000   1.0000
     1.0000   1.0000   1.0000   1.0000   1.0000   1.0000   1.0000   1.0000
     1.0000   1.0000   1.0000   1.0000   1.0000   1.0000   1.0000   1.0000
     1.0000   1.0021   1.0021   1.0057   1.0061   1.0085   1.0085   1.0086
     1.0097   1.0153   1.0154   1.0345   1.0197   1.0194   0.9471   0.9404
     0.6935   0.6319   0.6313  -0.0000  -0.0000  -0.0000  -0.0000  -0.0000
    -0.0000  -0.0000  -0.0000  -0.0000

     the Fermi energy is     9.0424 ev

!    total energy              =    -771.46229961 Ry
     estimated scf accuracy    <          7.5E-11 Ry
     smearing contrib. (-TS)   =      -0.00692249 Ry
     internal energy E=F+TS    =    -771.45537712 Ry

     The total energy is F=E-TS. E is the sum of the following terms:
     one-electron contribution =    -378.11240953 Ry
     hartree contribution      =     278.87036944 Ry
     xc contribution           =    -234.69611371 Ry
     ewald contribution        =    -437.51722332 Ry

     convergence has been achieved in  90 iterations

     negative rho (up, down):  4.001E-03 0.000E+00

     Forces acting on atoms (cartesian axes, Ry/au):

     atom    1 type  1   force =     0.00000000    0.00000000    0.00000000
     atom    2 type  2   force =     0.00000000    0.00000000   -0.00024835
     atom    3 type  2   force =     0.00000000    0.00000000    0.00024835
     atom    4 type  3   force =     0.00000000    0.00000000    0.00000000
     atom    5 type  3   force =     0.00000000    0.00000000    0.00060832
     atom    6 type  3   force =     0.00000000    0.00000000   -0.00060832
     atom    7 type  4   force =     0.00000000    0.00000000   -0.00025482
     atom    8 type  4   force =     0.00000000    0.00000000    0.00025482
     atom    9 type  4   force =     0.00000000    0.00000000   -0.00061442
     atom   10 type  4   force =     0.00000000    0.00000000    0.00061442
     atom   11 type  4   force =     0.00000000    0.00000000    0.00004841
     atom   12 type  4   force =     0.00000000    0.00000000   -0.00004841
     The non-local contrib.  to forces
     atom    1 type  1   force =     0.00000000    0.00000000    0.00000000
     atom    2 type  2   force =     0.00000000    0.00000000   -0.07102217
     atom    3 type  2   force =     0.00000000    0.00000000    0.07102217
     atom    4 type  3   force =     0.00000000    0.00000000    0.00000000
     atom    5 type  3   force =     0.00000000    0.00000000    0.27803940
     atom    6 type  3   force =     0.00000000    0.00000000   -0.27803940
     atom    7 type  4   force =     0.00000000    0.00000000    0.11820177
     atom    8 type  4   force =     0.00000000    0.00000000   -0.11820177
     atom    9 type  4   force =     0.00000000    0.00000000    0.11638154
     atom   10 type  4   force =     0.00000000    0.00000000   -0.11638154
     atom   11 type  4   force =     0.00000000    0.00000000   -0.61840621
     atom   12 type  4   force =     0.00000000    0.00000000    0.61840621
     The ionic contribution  to forces
     atom    1 type  1   force =    -0.00000000    0.00000000    0.00000000
     atom    2 type  2   force =    -0.00000000    0.00000000  -28.14550802
     atom    3 type  2   force =    -0.00000000    0.00000000   28.14550802
     atom    4 type  3   force =     0.00000000   -0.00000000    0.00000000
     atom    5 type  3   force =     0.00000000   -0.00000000  -12.93237806
     atom    6 type  3   force =     0.00000000   -0.00000000   12.93237806
     atom    7 type  4   force =    -0.00000000   -0.00000000   -8.15489982
     atom    8 type  4   force =    -0.00000000   -0.00000000    8.15489982
     atom    9 type  4   force =     0.00000000    0.00000000   -8.14983545
     atom   10 type  4   force =     0.00000000    0.00000000    8.14983545
     atom   11 type  4   force =     0.00000000   -0.00000000   -8.96452355
     atom   12 type  4   force =     0.00000000   -0.00000000    8.96452355
     The local contribution  to forces
     atom    1 type  1   force =    -0.00000000    0.00000000    0.00000000
     atom    2 type  2   force =    -0.00000000    0.00000000   28.22940055
     atom    3 type  2   force =    -0.00000000    0.00000000  -28.22940055
     atom    4 type  3   force =    -0.00000000    0.00000000    0.00000000
     atom    5 type  3   force =    -0.00000000    0.00000000   12.68076103
     atom    6 type  3   force =    -0.00000000    0.00000000  -12.68076103
     atom    7 type  4   force =    -0.00000000    0.00000000    8.03810584
     atom    8 type  4   force =    -0.00000000    0.00000000   -8.03810584
     atom    9 type  4   force =    -0.00000000    0.00000000    8.03447906
     atom   10 type  4   force =     0.00000000    0.00000000   -8.03447906
     atom   11 type  4   force =    -0.00000000   -0.00000000    9.57886841
     atom   12 type  4   force =    -0.00000000   -0.00000000   -9.57886841
     The core correction contribution to forces
     atom    1 type  1   force =     0.00000000   -0.00000000    0.00000000
     atom    2 type  2   force =     0.00000000   -0.00000000   -0.01311957
     atom    3 type  2   force =     0.00000000    0.00000000    0.01311957
     atom    4 type  3   force =    -0.00000000    0.00000000   -0.00000000
     atom    5 type  3   force =     0.00000000   -0.00000000   -0.02581447
     atom    6 type  3   force =    -0.00000000    0.00000000    0.02581447
     atom    7 type  4   force =    -0.00000000    0.00000000   -0.00166209
     atom    8 type  4   force =    -0.00000000    0.00000000    0.00166209
     atom    9 type  4   force =    -0.00000000    0.00000000   -0.00163886
     atom   10 type  4   force =     0.00000000    0.00000000    0.00163886
     atom   11 type  4   force =    -0.00000000    0.00000000    0.00410908
     atom   12 type  4   force =     0.00000000    0.00000000   -0.00410908
     The Hubbard contrib.    to forces
     atom    1 type  1   force =     0.00000000    0.00000000    0.00000000
     atom    2 type  2   force =     0.00000000    0.00000000    0.00000000
     atom    3 type  2   force =     0.00000000    0.00000000    0.00000000
     atom    4 type  3   force =     0.00000000    0.00000000    0.00000000
     atom    5 type  3   force =     0.00000000    0.00000000    0.00000000
     atom    6 type  3   force =     0.00000000    0.00000000    0.00000000
     atom    7 type  4   force =     0.00000000    0.00000000    0.00000000
     atom    8 type  4   force =     0.00000000    0.00000000    0.00000000
     atom    9 type  4   force =     0.00000000    0.00000000    0.00000000
     atom   10 type  4   force =     0.00000000    0.00000000    0.00000000
     atom   11 type  4   force =     0.00000000    0.00000000    0.00000000
     atom   12 type  4   force =     0.00000000    0.00000000    0.00000000
     The SCF correction term to forces
     atom    1 type  1   force =     0.00000000   -0.00000000   -0.00000000
     atom    2 type  2   force =     0.00000000    0.00000000    0.00000085
     atom    3 type  2   force =    -0.00000000   -0.00000000   -0.00000085
     atom    4 type  3   force =    -0.00000000   -0.00000000    0.00000000
     atom    5 type  3   force =     0.00000000    0.00000000    0.00000042
     atom    6 type  3   force =    -0.00000000   -0.00000000   -0.00000042
     atom    7 type  4   force =    -0.00000000   -0.00000000   -0.00000052
     atom    8 type  4   force =     0.00000000    0.00000000    0.00000052
     atom    9 type  4   force =     0.00000000   -0.00000000   -0.00000071
     atom   10 type  4   force =    -0.00000000    0.00000000    0.00000071
     atom   11 type  4   force =    -0.00000000    0.00000000    0.00000068
     atom   12 type  4   force =    -0.00000000   -0.00000000   -0.00000068

     Total force =     0.001324     Total SCF correction =     0.000002


     Computing stress (Cartesian axis) and pressure


     negative rho (up, down):  4.001E-03 0.000E+00
          total   stress  (Ry/bohr**3)                   (kbar)     P=        0.30
   0.00000275   0.00000000   0.00000000            0.40        0.00        0.00
   0.00000000   0.00000279   0.00000000            0.00        0.41        0.00
   0.00000000   0.00000000   0.00000066            0.00        0.00        0.10

     kinetic stress (kbar)  19584.04      0.00      0.00
                                0.00  19583.31      0.00
                                0.00      0.00  18782.69

     local   stress (kbar) -23561.06      0.00      0.00
                                0.00 -23554.89     -0.00
                                0.00     -0.00  18930.49

     nonloc. stress (kbar)   2906.84      0.00      0.00
                                0.00   2906.73      0.00
                                0.00      0.00   2925.65

     hartree stress (kbar)  18904.15     -0.00     -0.00
                               -0.00  18901.24      0.00
                               -0.00      0.00  -1964.61

     exc-cor stress (kbar)   8381.85      0.00      0.00
                                0.00   8381.85      0.00
                                0.00      0.00   8381.85

     corecor stress (kbar) -14429.12      0.00      0.00
                                0.00 -14429.06      0.00
                                0.00      0.00 -14400.77

     ewald   stress (kbar) -11786.29     -0.00     -0.00
                               -0.00 -11788.77     -0.00
                               -0.00     -0.00 -32655.20

     hubbard stress (kbar)      0.00      0.00      0.00
                                0.00      0.00      0.00
                                0.00      0.00      0.00

     DFT-D   stress (kbar)      0.00      0.00      0.00
                                0.00      0.00      0.00
                                0.00      0.00      0.00

     XDM     stress (kbar)      0.00      0.00      0.00
                                0.00      0.00      0.00
                                0.00      0.00      0.00

     dft-nl  stress (kbar)      0.00      0.00      0.00
                                0.00      0.00      0.00
                                0.00      0.00      0.00

     TS-vdW  stress (kbar)      0.00      0.00      0.00
                                0.00      0.00      0.00
                                0.00      0.00      0.00

     MDB     stress (kbar)      0.00      0.00      0.00
                                0.00      0.00      0.00
                                0.00      0.00      0.00

     3D-RISM stress (kbar)      0.00      0.00      0.00
                                0.00      0.00      0.00
                                0.00      0.00      0.00


     Writing all to output data dir ./YBCO.vc-relax/YBCO.vc-relax.save/
 
     init_run     :      3.90s CPU      4.34s WALL (       2 calls)
     electrons    :   1492.27s CPU   1800.03s WALL (      18 calls)
     update_pot   :     16.71s CPU     16.78s WALL (      16 calls)
     forces       :     13.31s CPU     15.71s WALL (      18 calls)
     stress       :     95.79s CPU    110.49s WALL (      18 calls)

     Called by init_run:
     wfcinit      :      0.19s CPU      0.25s WALL (       2 calls)
     wfcinit:atom :      0.00s CPU      0.00s WALL (       2 calls)
     wfcinit:wfcr :      0.17s CPU      0.22s WALL (       2 calls)
     potinit      :      0.05s CPU      0.05s WALL (       2 calls)
     hinit0       :      2.57s CPU      2.65s WALL (       2 calls)

     Called by electrons:
     c_bands      :    225.48s CPU    229.57s WALL (    1108 calls)
     sum_band     :    702.98s CPU    863.66s WALL (    1108 calls)
     v_of_rho     :      9.94s CPU     10.11s WALL (    1126 calls)
     v_h          :      5.86s CPU      5.96s WALL (    1126 calls)
     v_xc         :      4.20s CPU      4.28s WALL (    1162 calls)
     newd         :    541.63s CPU    685.83s WALL (    1126 calls)
     mix_rho      :     13.97s CPU     14.53s WALL (    1108 calls)

     Called by c_bands:
     init_us_2    :      4.92s CPU      5.27s WALL (    2218 calls)
     init_us_2:cp :      4.91s CPU      5.26s WALL (    2218 calls)
     cegterg      :    202.92s CPU    206.56s WALL (    1108 calls)

     Called by sum_band:
     sum_band:wei :      0.11s CPU      0.12s WALL (    1108 calls)
     sum_band:loo :     37.75s CPU     38.67s WALL (    1108 calls)
     sum_band:buf :      0.00s CPU      0.00s WALL (    1108 calls)
     sum_band:ini :      2.63s CPU      2.67s WALL (    1108 calls)
     sum_band:cal :      7.23s CPU      7.33s WALL (    1108 calls)
     sum_band:bec :      0.06s CPU      0.06s WALL (    1108 calls)
     addusdens    :    651.72s CPU    807.00s WALL (    1108 calls)
                                        0.00s GPU  (    1108 calls)
     addusd:skk   :      3.29s CPU      3.80s WALL (    4432 calls)
                                        0.00s GPU  (    4432 calls)

     Called by *egterg:
     cdiaghg      :      7.39s CPU      7.45s WALL (    3848 calls)
     cegterg:over :     14.48s CPU     14.72s WALL (    2756 calls)
     cegterg:upda :      7.69s CPU      7.75s WALL (    2756 calls)
     cegterg:last :     16.23s CPU     16.25s WALL (    1852 calls)
     h_psi        :    130.27s CPU    133.26s WALL (    3866 calls)
     s_psi        :     16.41s CPU     16.49s WALL (    3866 calls)
     g_psi        :      0.64s CPU      0.64s WALL (    2756 calls)

     Called by h_psi:
     h_psi:calbec :     16.90s CPU     17.17s WALL (    3866 calls)
     vloc_psi     :     95.12s CPU     97.71s WALL (    3866 calls)
     add_vuspsi   :     16.69s CPU     16.80s WALL (    3866 calls)

     General routines
     calbec       :     24.65s CPU     25.05s WALL (    5064 calls)
     fft          :     16.53s CPU     17.42s WALL (    6880 calls)
     ffts         :      1.36s CPU      1.38s WALL (    2234 calls)
     fftw         :     90.15s CPU     92.65s WALL (  351288 calls)
     interpolate  :      4.10s CPU      4.21s WALL (    1126 calls)
 
     Parallel routines
 
     PWSCF        :  27m10.34s CPU  32m37.93s WALL

 
   This run was terminated on:   0:23:43  30Dec2023            

=------------------------------------------------------------------------------=
   JOB DONE.
=------------------------------------------------------------------------------=
