
     Program PWSCF v.7.2 starts on  1Jan2024 at 20:28:14 

     This program is part of the open-source Quantum ESPRESSO suite
     for quantum simulation of materials; please cite
         "P. Giannozzi et al., J. Phys.:Condens. Matter 21 395502 (2009);
         "P. Giannozzi et al., J. Phys.:Condens. Matter 29 465901 (2017);
         "P. Giannozzi et al., J. Chem. Phys. 152 154105 (2020);
          URL http://www.quantum-espresso.org", 
     in publications or presentations arising from this work. More details at
     http://www.quantum-espresso.org/quote

     Parallel version (MPI), running on     4 processors

     MPI processes distributed on     1 nodes
     7602 MiB available memory on the printing compute node when the environment starts
 
     Waiting for input...
     Reading input from standard input
Warning: card &CELL ignored
Warning: card / ignored

     Current dimensions of program PWSCF are:
     Max number of different atomic species (ntypx) = 10
     Max number of k-points (npk) =  40000
     Max angular momentum in pseudopotentials (lmaxx) =  4
     file Y.pz-spn-rrkjus_psl.1.0.0.UPF: wavefunction(s)  4S renormalized
     file Ba.pz-spn-rrkjus_psl.1.0.0.UPF: wavefunction(s)  5S 6S renormalized
     file Cu.pz-dn-rrkjus_psl.1.0.0.UPF: wavefunction(s)  3D renormalized
     file Cu.pz-dn-rrkjus_psl.1.0.0.UPF: wavefunction(s)  3D renormalized
     file Cu.pz-dn-rrkjus_psl.1.0.0.UPF: wavefunction(s)  3D renormalized
     Found identity + ( -0.5000 -0.5000  0.0000) symmetry
     This is a supercell, fractional translations are disabled
 
     R & G space division:  proc/nbgrp/npool/nimage =       4
     Subspace diagonalization in iterative solution of the eigenvalue problem:
     one sub-group per band group will be used
     custom distributed-memory algorithm (size of sub-group:  2*  2 procs)

 
     Parallelization info
     --------------------
     sticks:   dense  smooth     PW     G-vecs:    dense   smooth      PW
     Min        2210     984    252               238514    70654    9320
     Max        2211     985    253               238519    70656    9324
     Sum        8841    3937   1009               954065   282619   37287
 
     Using Slab Decomposition
 


     bravais-lattice index     =            6
     lattice parameter (alat)  =      14.3459  a.u.
     unit-cell volume          =    4502.1906 (a.u.)^3
     number of atoms/cell      =           48
     number of atomic types    =            6
     number of electrons       =       400.00
     number of Kohn-Sham states=          240
     kinetic-energy cutoff     =      60.0000  Ry
     charge density cutoff     =     540.0000  Ry
     scf convergence threshold =      1.0E-08
     mixing beta               =       0.1000
     number of iterations used =            8  plain     mixing
     Exchange-correlation= LDA
                           (   1   1   0   0   0   0   0)
     Hubbard projectors: ortho-atomic
     Hubbard parameters of DFT+U (Dudarev formulation) in eV:
     U(Cu1-3d) =  2.5000
     U(Cu2-3d) =  2.5000

     Internal variables: lda_plus_u = T, lda_plus_u_kind = 0

     celldm(1)=  14.345919  celldm(2)=   0.000000  celldm(3)=   1.524891
     celldm(4)=   0.000000  celldm(5)=   0.000000  celldm(6)=   0.000000

     crystal axes: (cart. coord. in units of alat)
               a(1) = (   1.000000   0.000000   0.000000 )  
               a(2) = (   0.000000   1.000000   0.000000 )  
               a(3) = (   0.000000   0.000000   1.524891 )  

     reciprocal axes: (cart. coord. in units 2 pi/alat)
               b(1) = (  1.000000  0.000000  0.000000 )  
               b(2) = (  0.000000  1.000000  0.000000 )  
               b(3) = (  0.000000  0.000000  0.655785 )  


     PseudoPot. # 1 for Y  read from file:
     ~/q-e/pseudo/pslibrary/pz/PSEUDOPOTENTIALS/Y.pz-spn-rrkjus_psl.1.0.0.UPF
     MD5 check sum: Not computed, couldn't open file
     Pseudo is Ultrasoft + core correction, Zval = 11.0
     Generated using 'atomic' code by A. Dal Corso  v.7.2
     Using radial grid of 1223 points,  6 beta functions with: 
                l(1) =   0
                l(2) =   0
                l(3) =   1
                l(4) =   1
                l(5) =   2
                l(6) =   2
     Q(r) pseudized with 0 coefficients 


     PseudoPot. # 2 for Ba read from file:
     ~/q-e/pseudo/pslibrary/pz/PSEUDOPOTENTIALS/Ba.pz-spn-rrkjus_psl.1.0.0.UPF
     MD5 check sum: Not computed, couldn't open file
     Pseudo is Ultrasoft + core correction, Zval = 10.0
     Generated using 'atomic' code by A. Dal Corso  v.7.2
     Using radial grid of 1251 points,  7 beta functions with: 
                l(1) =   0
                l(2) =   0
                l(3) =   0
                l(4) =   1
                l(5) =   1
                l(6) =   2
                l(7) =   2
     Q(r) pseudized with 0 coefficients 


     PseudoPot. # 3 for Cu read from file:
     ~/q-e/pseudo/pslibrary/pz/PSEUDOPOTENTIALS/Cu.pz-dn-rrkjus_psl.1.0.0.UPF
     MD5 check sum: Not computed, couldn't open file
     Pseudo is Ultrasoft + core correction, Zval = 11.0
     Generated using 'atomic' code by A. Dal Corso  v.7.2
     Using radial grid of 1199 points,  6 beta functions with: 
                l(1) =   0
                l(2) =   0
                l(3) =   1
                l(4) =   1
                l(5) =   2
                l(6) =   2
     Q(r) pseudized with 0 coefficients 


     PseudoPot. # 4 for Cu read from file:
     ~/q-e/pseudo/pslibrary/pz/PSEUDOPOTENTIALS/Cu.pz-dn-rrkjus_psl.1.0.0.UPF
     MD5 check sum: Not computed, couldn't open file
     Pseudo is Ultrasoft + core correction, Zval = 11.0
     Generated using 'atomic' code by A. Dal Corso  v.7.2
     Using radial grid of 1199 points,  6 beta functions with: 
                l(1) =   0
                l(2) =   0
                l(3) =   1
                l(4) =   1
                l(5) =   2
                l(6) =   2
     Q(r) pseudized with 0 coefficients 


     PseudoPot. # 5 for Cu read from file:
     ~/q-e/pseudo/pslibrary/pz/PSEUDOPOTENTIALS/Cu.pz-dn-rrkjus_psl.1.0.0.UPF
     MD5 check sum: Not computed, couldn't open file
     Pseudo is Ultrasoft + core correction, Zval = 11.0
     Generated using 'atomic' code by A. Dal Corso  v.7.2
     Using radial grid of 1199 points,  6 beta functions with: 
                l(1) =   0
                l(2) =   0
                l(3) =   1
                l(4) =   1
                l(5) =   2
                l(6) =   2
     Q(r) pseudized with 0 coefficients 


     PseudoPot. # 6 for O  read from file:
     ~/q-e/pseudo/pslibrary/pz/PSEUDOPOTENTIALS/O.pz-n-rrkjus_psl.1.0.0.UPF
     MD5 check sum: Not computed, couldn't open file
     Pseudo is Ultrasoft + core correction, Zval =  6.0
     Generated using 'atomic' code by A. Dal Corso  v.7.2
     Using radial grid of 1095 points,  4 beta functions with: 
                l(1) =   0
                l(2) =   0
                l(3) =   1
                l(4) =   1
     Q(r) pseudized with 0 coefficients 


     atomic species   valence    mass     pseudopotential
     Y                11.00    88.90584     Y ( 1.00)
     Ba               10.00   137.32700     Ba( 1.00)
     Cu               11.00    63.54600     Cu( 1.00)
     Cu1              11.00    63.54600     Cu( 1.00)
     Cu2              11.00    63.54600     Cu( 1.00)
     O                 6.00    15.99900     O ( 1.00)

     Starting magnetic structure 
     atomic species   magnetization
     Y               0.000
     Ba              0.000
     Cu              0.000
     Cu1             0.100
     Cu2            -0.100
     O               0.000

     16 Sym. Ops., with inversion, found


                                    s                        frac. trans.

      isym =  1     identity                                     

 cryst.   s( 1) = (     1          0          0      )
                  (     0          1          0      )
                  (     0          0          1      )

 cart.    s( 1) = (  1.0000000  0.0000000  0.0000000 )
                  (  0.0000000  1.0000000  0.0000000 )
                  (  0.0000000  0.0000000  1.0000000 )


      isym =  2     180 deg rotation - cart. axis [0,0,1]        

 cryst.   s( 2) = (    -1          0          0      )
                  (     0         -1          0      )
                  (     0          0          1      )

 cart.    s( 2) = ( -1.0000000  0.0000000  0.0000000 )
                  (  0.0000000 -1.0000000  0.0000000 )
                  (  0.0000000  0.0000000  1.0000000 )


      isym =  3     180 deg rotation - cart. axis [0,1,0]        

 cryst.   s( 3) = (    -1          0          0      )
                  (     0          1          0      )
                  (     0          0         -1      )

 cart.    s( 3) = ( -1.0000000  0.0000000  0.0000000 )
                  (  0.0000000  1.0000000  0.0000000 )
                  (  0.0000000  0.0000000 -1.0000000 )


      isym =  4     180 deg rotation - cart. axis [1,0,0]        

 cryst.   s( 4) = (     1          0          0      )
                  (     0         -1          0      )
                  (     0          0         -1      )

 cart.    s( 4) = (  1.0000000  0.0000000  0.0000000 )
                  (  0.0000000 -1.0000000  0.0000000 )
                  (  0.0000000  0.0000000 -1.0000000 )


      isym =  5     180 deg rotation - cart. axis [1,1,0]        

 cryst.   s( 5) = (     0          1          0      )
                  (     1          0          0      )
                  (     0          0         -1      )

 cart.    s( 5) = (  0.0000000  1.0000000  0.0000000 )
                  (  1.0000000  0.0000000  0.0000000 )
                  (  0.0000000  0.0000000 -1.0000000 )


      isym =  6     180 deg rotation - cart. axis [1,-1,0]       

 cryst.   s( 6) = (     0         -1          0      )
                  (    -1          0          0      )
                  (     0          0         -1      )

 cart.    s( 6) = (  0.0000000 -1.0000000  0.0000000 )
                  ( -1.0000000  0.0000000  0.0000000 )
                  (  0.0000000  0.0000000 -1.0000000 )


      isym =  7      90 deg rotation - cart. axis [0,0,-1]       

 cryst.   s( 7) = (     0         -1          0      )
                  (     1          0          0      )
                  (     0          0          1      )

 cart.    s( 7) = (  0.0000000  1.0000000  0.0000000 )
                  ( -1.0000000  0.0000000  0.0000000 )
                  (  0.0000000  0.0000000  1.0000000 )


      isym =  8      90 deg rotation - cart. axis [0,0,1]        

 cryst.   s( 8) = (     0          1          0      )
                  (    -1          0          0      )
                  (     0          0          1      )

 cart.    s( 8) = (  0.0000000 -1.0000000  0.0000000 )
                  (  1.0000000  0.0000000  0.0000000 )
                  (  0.0000000  0.0000000  1.0000000 )


      isym =  9     inversion                                    

 cryst.   s( 9) = (    -1          0          0      )
                  (     0         -1          0      )
                  (     0          0         -1      )

 cart.    s( 9) = ( -1.0000000  0.0000000  0.0000000 )
                  (  0.0000000 -1.0000000  0.0000000 )
                  (  0.0000000  0.0000000 -1.0000000 )


      isym = 10     inv. 180 deg rotation - cart. axis [0,0,1]   

 cryst.   s(10) = (     1          0          0      )
                  (     0          1          0      )
                  (     0          0         -1      )

 cart.    s(10) = (  1.0000000  0.0000000  0.0000000 )
                  (  0.0000000  1.0000000  0.0000000 )
                  (  0.0000000  0.0000000 -1.0000000 )


      isym = 11     inv. 180 deg rotation - cart. axis [0,1,0]   

 cryst.   s(11) = (     1          0          0      )
                  (     0         -1          0      )
                  (     0          0          1      )

 cart.    s(11) = (  1.0000000  0.0000000  0.0000000 )
                  (  0.0000000 -1.0000000  0.0000000 )
                  (  0.0000000  0.0000000  1.0000000 )


      isym = 12     inv. 180 deg rotation - cart. axis [1,0,0]   

 cryst.   s(12) = (    -1          0          0      )
                  (     0          1          0      )
                  (     0          0          1      )

 cart.    s(12) = ( -1.0000000  0.0000000  0.0000000 )
                  (  0.0000000  1.0000000  0.0000000 )
                  (  0.0000000  0.0000000  1.0000000 )


      isym = 13     inv. 180 deg rotation - cart. axis [1,1,0]   

 cryst.   s(13) = (     0         -1          0      )
                  (    -1          0          0      )
                  (     0          0          1      )

 cart.    s(13) = (  0.0000000 -1.0000000  0.0000000 )
                  ( -1.0000000  0.0000000  0.0000000 )
                  (  0.0000000  0.0000000  1.0000000 )


      isym = 14     inv. 180 deg rotation - cart. axis [1,-1,0]  

 cryst.   s(14) = (     0          1          0      )
                  (     1          0          0      )
                  (     0          0          1      )

 cart.    s(14) = (  0.0000000  1.0000000  0.0000000 )
                  (  1.0000000  0.0000000  0.0000000 )
                  (  0.0000000  0.0000000  1.0000000 )


      isym = 15     inv.  90 deg rotation - cart. axis [0,0,-1]  

 cryst.   s(15) = (     0          1          0      )
                  (    -1          0          0      )
                  (     0          0         -1      )

 cart.    s(15) = (  0.0000000 -1.0000000  0.0000000 )
                  (  1.0000000  0.0000000  0.0000000 )
                  (  0.0000000  0.0000000 -1.0000000 )


      isym = 16     inv.  90 deg rotation - cart. axis [0,0,1]   

 cryst.   s(16) = (     0         -1          0      )
                  (     1          0          0      )
                  (     0          0         -1      )

 cart.    s(16) = (  0.0000000  1.0000000  0.0000000 )
                  ( -1.0000000  0.0000000  0.0000000 )
                  (  0.0000000  0.0000000 -1.0000000 )


     point group D_4h(4/mmm)
     there are 10 classes
     the character table:

       E     2C4   C2    2C2'  2C2'' i     2S4   s_h   2s_v  2s_d 
A_1g   1.00  1.00  1.00  1.00  1.00  1.00  1.00  1.00  1.00  1.00
A_2g   1.00  1.00  1.00 -1.00 -1.00  1.00  1.00  1.00 -1.00 -1.00
B_1g   1.00 -1.00  1.00  1.00 -1.00  1.00 -1.00  1.00  1.00 -1.00
B_2g   1.00 -1.00  1.00 -1.00  1.00  1.00 -1.00  1.00 -1.00  1.00
E_g    2.00  0.00 -2.00  0.00  0.00  2.00  0.00 -2.00  0.00  0.00
A_1u   1.00  1.00  1.00  1.00  1.00 -1.00 -1.00 -1.00 -1.00 -1.00
A_2u   1.00  1.00  1.00 -1.00 -1.00 -1.00 -1.00 -1.00  1.00  1.00
B_1u   1.00 -1.00  1.00  1.00 -1.00 -1.00  1.00 -1.00 -1.00  1.00
B_2u   1.00 -1.00  1.00 -1.00  1.00 -1.00  1.00 -1.00  1.00 -1.00
E_u    2.00  0.00 -2.00  0.00  0.00 -2.00  0.00  2.00  0.00  0.00

     the symmetry operations in each class and the name of the first element:

     E        1
          identity                                               
     2C4      7    8
           90 deg rotation - cart. axis [0,0,-1]                 
     C2       2
          180 deg rotation - cart. axis [0,0,1]                  
     2C2'     3    4
          180 deg rotation - cart. axis [0,1,0]                  
     2C2''    5    6
          180 deg rotation - cart. axis [1,1,0]                  
     i        9
          inversion                                              
     2S4     15   16
          inv.  90 deg rotation - cart. axis [0,0,-1]            
     s_h     10
          inv. 180 deg rotation - cart. axis [0,0,1]             
     2s_v    11   12
          inv. 180 deg rotation - cart. axis [0,1,0]             
     2s_d    13   14
          inv. 180 deg rotation - cart. axis [1,1,0]             

   Cartesian axes

     site n.     atom                  positions (alat units)
         1        Y      tau(   1) = (   0.2500000   0.2500000   0.7624455  )
         2        Y      tau(   2) = (   0.2500000   0.7500000   0.7624455  )
         3        Y      tau(   3) = (   0.7500000   0.2500000   0.7624455  )
         4        Y      tau(   4) = (   0.7500000   0.7500000   0.7624455  )
         5        Ba     tau(   5) = (   0.2500000   0.2500000   0.2966571  )
         6        Ba     tau(   6) = (   0.2500000   0.2500000   1.2282339  )
         7        Ba     tau(   7) = (   0.2500000   0.7500000   0.2966571  )
         8        Ba     tau(   8) = (   0.2500000   0.7500000   1.2282339  )
         9        Ba     tau(   9) = (   0.7500000   0.2500000   0.2966571  )
        10        Ba     tau(  10) = (   0.7500000   0.2500000   1.2282339  )
        11        Ba     tau(  11) = (   0.7500000   0.7500000   0.2966571  )
        12        Ba     tau(  12) = (   0.7500000   0.7500000   1.2282339  )
        13        Cu     tau(  13) = (   0.0000000   0.0000000   0.0000000  )
        14        Cu1    tau(  14) = (   0.0000000   0.0000000   0.5526369  )
        15        Cu1    tau(  15) = (   0.0000000   0.0000000   0.9722541  )
        16        Cu     tau(  16) = (   0.0000000   0.5000000   0.0000000  )
        17        Cu2    tau(  17) = (   0.0000000   0.5000000   0.5526369  )
        18        Cu2    tau(  18) = (   0.0000000   0.5000000   0.9722541  )
        19        Cu     tau(  19) = (   0.5000000   0.0000000   0.0000000  )
        20        Cu2    tau(  20) = (   0.5000000   0.0000000   0.5526369  )
        21        Cu2    tau(  21) = (   0.5000000   0.0000000   0.9722541  )
        22        Cu     tau(  22) = (   0.5000000   0.5000000   0.0000000  )
        23        Cu1    tau(  23) = (   0.5000000   0.5000000   0.5526369  )
        24        Cu1    tau(  24) = (   0.5000000   0.5000000   0.9722541  )
        25        O      tau(  25) = (   0.0000000   0.0000000   0.2314064  )
        26        O      tau(  26) = (   0.0000000   0.0000000   1.2934846  )
        27        O      tau(  27) = (   0.5000000   0.0000000   0.2314064  )
        28        O      tau(  28) = (   0.5000000   0.0000000   1.2934846  )
        29        O      tau(  29) = (   0.0000000   0.5000000   0.2314064  )
        30        O      tau(  30) = (   0.0000000   0.5000000   1.2934846  )
        31        O      tau(  31) = (   0.5000000   0.5000000   0.2314064  )
        32        O      tau(  32) = (   0.5000000   0.5000000   1.2934846  )
        33        O      tau(  33) = (   0.2500000   0.0000000   0.5769788  )
        34        O      tau(  34) = (   0.2500000   0.0000000   0.9479122  )
        35        O      tau(  35) = (   0.2500000   0.5000000   0.5769788  )
        36        O      tau(  36) = (   0.2500000   0.5000000   0.9479122  )
        37        O      tau(  37) = (   0.7500000   0.0000000   0.5769788  )
        38        O      tau(  38) = (   0.7500000   0.0000000   0.9479122  )
        39        O      tau(  39) = (   0.7500000   0.5000000   0.5769788  )
        40        O      tau(  40) = (   0.7500000   0.5000000   0.9479122  )
        41        O      tau(  41) = (   0.0000000   0.2500000   0.5769788  )
        42        O      tau(  42) = (   0.0000000   0.2500000   0.9479122  )
        43        O      tau(  43) = (   0.5000000   0.2500000   0.5769788  )
        44        O      tau(  44) = (   0.5000000   0.2500000   0.9479122  )
        45        O      tau(  45) = (   0.0000000   0.7500000   0.5769788  )
        46        O      tau(  46) = (   0.0000000   0.7500000   0.9479122  )
        47        O      tau(  47) = (   0.5000000   0.7500000   0.5769788  )
        48        O      tau(  48) = (   0.5000000   0.7500000   0.9479122  )

   Crystallographic axes

     site n.     atom                  positions (cryst. coord.)
         1        Y      tau(   1) = (  0.2500000  0.2500000  0.5000000  )
         2        Y      tau(   2) = (  0.2500000  0.7500000  0.5000000  )
         3        Y      tau(   3) = (  0.7500000  0.2500000  0.5000000  )
         4        Y      tau(   4) = (  0.7500000  0.7500000  0.5000000  )
         5        Ba     tau(   5) = (  0.2500000  0.2500000  0.1945431  )
         6        Ba     tau(   6) = (  0.2500000  0.2500000  0.8054569  )
         7        Ba     tau(   7) = (  0.2500000  0.7500000  0.1945431  )
         8        Ba     tau(   8) = (  0.2500000  0.7500000  0.8054569  )
         9        Ba     tau(   9) = (  0.7500000  0.2500000  0.1945431  )
        10        Ba     tau(  10) = (  0.7500000  0.2500000  0.8054569  )
        11        Ba     tau(  11) = (  0.7500000  0.7500000  0.1945431  )
        12        Ba     tau(  12) = (  0.7500000  0.7500000  0.8054569  )
        13        Cu     tau(  13) = (  0.0000000  0.0000000  0.0000000  )
        14        Cu1    tau(  14) = (  0.0000000  0.0000000  0.3624108  )
        15        Cu1    tau(  15) = (  0.0000000  0.0000000  0.6375892  )
        16        Cu     tau(  16) = (  0.0000000  0.5000000  0.0000000  )
        17        Cu2    tau(  17) = (  0.0000000  0.5000000  0.3624108  )
        18        Cu2    tau(  18) = (  0.0000000  0.5000000  0.6375892  )
        19        Cu     tau(  19) = (  0.5000000  0.0000000  0.0000000  )
        20        Cu2    tau(  20) = (  0.5000000  0.0000000  0.3624108  )
        21        Cu2    tau(  21) = (  0.5000000  0.0000000  0.6375892  )
        22        Cu     tau(  22) = (  0.5000000  0.5000000  0.0000000  )
        23        Cu1    tau(  23) = (  0.5000000  0.5000000  0.3624108  )
        24        Cu1    tau(  24) = (  0.5000000  0.5000000  0.6375892  )
        25        O      tau(  25) = (  0.0000000  0.0000000  0.1517528  )
        26        O      tau(  26) = (  0.0000000  0.0000000  0.8482472  )
        27        O      tau(  27) = (  0.5000000  0.0000000  0.1517528  )
        28        O      tau(  28) = (  0.5000000  0.0000000  0.8482472  )
        29        O      tau(  29) = (  0.0000000  0.5000000  0.1517528  )
        30        O      tau(  30) = (  0.0000000  0.5000000  0.8482472  )
        31        O      tau(  31) = (  0.5000000  0.5000000  0.1517528  )
        32        O      tau(  32) = (  0.5000000  0.5000000  0.8482472  )
        33        O      tau(  33) = (  0.2500000  0.0000000  0.3783738  )
        34        O      tau(  34) = (  0.2500000  0.0000000  0.6216262  )
        35        O      tau(  35) = (  0.2500000  0.5000000  0.3783738  )
        36        O      tau(  36) = (  0.2500000  0.5000000  0.6216262  )
        37        O      tau(  37) = (  0.7500000  0.0000000  0.3783738  )
        38        O      tau(  38) = (  0.7500000  0.0000000  0.6216262  )
        39        O      tau(  39) = (  0.7500000  0.5000000  0.3783738  )
        40        O      tau(  40) = (  0.7500000  0.5000000  0.6216262  )
        41        O      tau(  41) = (  0.0000000  0.2500000  0.3783738  )
        42        O      tau(  42) = (  0.0000000  0.2500000  0.6216262  )
        43        O      tau(  43) = (  0.5000000  0.2500000  0.3783738  )
        44        O      tau(  44) = (  0.5000000  0.2500000  0.6216262  )
        45        O      tau(  45) = (  0.0000000  0.7500000  0.3783738  )
        46        O      tau(  46) = (  0.0000000  0.7500000  0.6216262  )
        47        O      tau(  47) = (  0.5000000  0.7500000  0.3783738  )
        48        O      tau(  48) = (  0.5000000  0.7500000  0.6216262  )

     number of k points=     2  Methfessel-Paxton smearing, width (Ry)=  0.0100
                       cart. coord. in units 2pi/alat
        k(    1) = (   0.0000000   0.0000000   0.0000000), wk =   0.5000000
        k(    2) = (   0.0000000   0.0000000  -0.3278923), wk =   0.5000000

                       cryst. coord.
        k(    1) = (   0.0000000   0.0000000   0.0000000), wk =   0.5000000
        k(    2) = (   0.0000000   0.0000000  -0.5000000), wk =   0.5000000

     Dense  grid:   954065 G-vectors     FFT dimensions: ( 108, 108, 162)

     Smooth grid:   282619 G-vectors     FFT dimensions: (  72,  72, 108)

     Dynamical RAM for                 wfc:      32.35 MB

     Dynamical RAM for     wfc (w. buffer):     161.74 MB

     Dynamical RAM for             U proj.:       5.39 MB

     Dynamical RAM for  U proj. (w. buff.):      26.96 MB

     Dynamical RAM for           str. fact:      21.84 MB

     Dynamical RAM for           local pot:       0.00 MB

     Dynamical RAM for          nlocal pot:      85.18 MB

     Dynamical RAM for                qrad:      14.91 MB

     Dynamical RAM for          rho,v,vnew:      43.73 MB

     Dynamical RAM for               rhoin:      14.58 MB

     Dynamical RAM for            rho*nmix:     116.46 MB

     Dynamical RAM for           G-vectors:      14.19 MB

     Dynamical RAM for          h,s,v(r/c):       2.64 MB

     Dynamical RAM for          <psi|beta>:       2.31 MB

     Dynamical RAM for                 psi:      64.69 MB

     Dynamical RAM for                hpsi:      64.69 MB

     Dynamical RAM for                spsi:      64.69 MB

     Dynamical RAM for      wfcinit/wfcrot:      81.80 MB

     Dynamical RAM for           addusdens:     837.08 MB

     Estimated static dynamical RAM per process >     430.48 MB

     Estimated max dynamical RAM per process >       1.35 GB

     Estimated total dynamical RAM >       5.41 GB
     Generating pointlists ...
     new r_m :   0.1284 (alat units)  1.8421 (a.u.) for type    1
     new r_m :   0.1483 (alat units)  2.1276 (a.u.) for type    2
     new r_m :   0.0955 (alat units)  1.3694 (a.u.) for type    3
     new r_m :   0.1036 (alat units)  1.4864 (a.u.) for type    4
     new r_m :   0.1036 (alat units)  1.4864 (a.u.) for type    5
     new r_m :   0.0955 (alat units)  1.3694 (a.u.) for type    6

     Initial potential from superposition of free atoms

     starting charge     399.8685, renormalised to     400.0000

     HUBBARD ENERGY =    0.3307  (Ry)

     STARTING HUBBARD OCCUPATIONS:

     =================== HUBBARD OCCUPATIONS ===================
     ------------------------ ATOM   14 ------------------------
     Tr[ns( 14)] (up, down, total) =   5.00000  4.50000  9.50000
     Atomic magnetic moment for atom  14 =   0.50000
     SPIN  1
     eigenvalues:
       1.000  1.000  1.000  1.000  1.000
     eigenvectors (columns):
       1.000  0.000  0.000  0.000  0.000
       0.000  1.000  0.000  0.000  0.000
       0.000  0.000  1.000  0.000  0.000
       0.000  0.000  0.000  1.000  0.000
       0.000  0.000  0.000  0.000  1.000
     occupation matrix ns (before diag.):
       1.000  0.000  0.000  0.000  0.000
       0.000  1.000  0.000  0.000  0.000
       0.000  0.000  1.000  0.000  0.000
       0.000  0.000  0.000  1.000  0.000
       0.000  0.000  0.000  0.000  1.000
     SPIN  2
     eigenvalues:
       0.900  0.900  0.900  0.900  0.900
     eigenvectors (columns):
       1.000  0.000  0.000  0.000  0.000
       0.000  1.000  0.000  0.000  0.000
       0.000  0.000  1.000  0.000  0.000
       0.000  0.000  0.000  1.000  0.000
       0.000  0.000  0.000  0.000  1.000
     occupation matrix ns (before diag.):
       0.900  0.000  0.000  0.000  0.000
       0.000  0.900  0.000  0.000  0.000
       0.000  0.000  0.900  0.000  0.000
       0.000  0.000  0.000  0.900  0.000
       0.000  0.000  0.000  0.000  0.900
     ------------------------ ATOM   15 ------------------------
     Tr[ns( 15)] (up, down, total) =   5.00000  4.50000  9.50000
     Atomic magnetic moment for atom  15 =   0.50000
     SPIN  1
     eigenvalues:
       1.000  1.000  1.000  1.000  1.000
     eigenvectors (columns):
       1.000  0.000  0.000  0.000  0.000
       0.000  1.000  0.000  0.000  0.000
       0.000  0.000  1.000  0.000  0.000
       0.000  0.000  0.000  1.000  0.000
       0.000  0.000  0.000  0.000  1.000
     occupation matrix ns (before diag.):
       1.000  0.000  0.000  0.000  0.000
       0.000  1.000  0.000  0.000  0.000
       0.000  0.000  1.000  0.000  0.000
       0.000  0.000  0.000  1.000  0.000
       0.000  0.000  0.000  0.000  1.000
     SPIN  2
     eigenvalues:
       0.900  0.900  0.900  0.900  0.900
     eigenvectors (columns):
       1.000  0.000  0.000  0.000  0.000
       0.000  1.000  0.000  0.000  0.000
       0.000  0.000  1.000  0.000  0.000
       0.000  0.000  0.000  1.000  0.000
       0.000  0.000  0.000  0.000  1.000
     occupation matrix ns (before diag.):
       0.900  0.000  0.000  0.000  0.000
       0.000  0.900  0.000  0.000  0.000
       0.000  0.000  0.900  0.000  0.000
       0.000  0.000  0.000  0.900  0.000
       0.000  0.000  0.000  0.000  0.900
     ------------------------ ATOM   17 ------------------------
     Tr[ns( 17)] (up, down, total) =   4.50000  5.00000  9.50000
     Atomic magnetic moment for atom  17 =  -0.50000
     SPIN  1
     eigenvalues:
       0.900  0.900  0.900  0.900  0.900
     eigenvectors (columns):
       1.000  0.000  0.000  0.000  0.000
       0.000  1.000  0.000  0.000  0.000
       0.000  0.000  1.000  0.000  0.000
       0.000  0.000  0.000  1.000  0.000
       0.000  0.000  0.000  0.000  1.000
     occupation matrix ns (before diag.):
       0.900  0.000  0.000  0.000  0.000
       0.000  0.900  0.000  0.000  0.000
       0.000  0.000  0.900  0.000  0.000
       0.000  0.000  0.000  0.900  0.000
       0.000  0.000  0.000  0.000  0.900
     SPIN  2
     eigenvalues:
       1.000  1.000  1.000  1.000  1.000
     eigenvectors (columns):
       1.000  0.000  0.000  0.000  0.000
       0.000  1.000  0.000  0.000  0.000
       0.000  0.000  1.000  0.000  0.000
       0.000  0.000  0.000  1.000  0.000
       0.000  0.000  0.000  0.000  1.000
     occupation matrix ns (before diag.):
       1.000  0.000  0.000  0.000  0.000
       0.000  1.000  0.000  0.000  0.000
       0.000  0.000  1.000  0.000  0.000
       0.000  0.000  0.000  1.000  0.000
       0.000  0.000  0.000  0.000  1.000
     ------------------------ ATOM   18 ------------------------
     Tr[ns( 18)] (up, down, total) =   4.50000  5.00000  9.50000
     Atomic magnetic moment for atom  18 =  -0.50000
     SPIN  1
     eigenvalues:
       0.900  0.900  0.900  0.900  0.900
     eigenvectors (columns):
       1.000  0.000  0.000  0.000  0.000
       0.000  1.000  0.000  0.000  0.000
       0.000  0.000  1.000  0.000  0.000
       0.000  0.000  0.000  1.000  0.000
       0.000  0.000  0.000  0.000  1.000
     occupation matrix ns (before diag.):
       0.900  0.000  0.000  0.000  0.000
       0.000  0.900  0.000  0.000  0.000
       0.000  0.000  0.900  0.000  0.000
       0.000  0.000  0.000  0.900  0.000
       0.000  0.000  0.000  0.000  0.900
     SPIN  2
     eigenvalues:
       1.000  1.000  1.000  1.000  1.000
     eigenvectors (columns):
       1.000  0.000  0.000  0.000  0.000
       0.000  1.000  0.000  0.000  0.000
       0.000  0.000  1.000  0.000  0.000
       0.000  0.000  0.000  1.000  0.000
       0.000  0.000  0.000  0.000  1.000
     occupation matrix ns (before diag.):
       1.000  0.000  0.000  0.000  0.000
       0.000  1.000  0.000  0.000  0.000
       0.000  0.000  1.000  0.000  0.000
       0.000  0.000  0.000  1.000  0.000
       0.000  0.000  0.000  0.000  1.000
     ------------------------ ATOM   20 ------------------------
     Tr[ns( 20)] (up, down, total) =   4.50000  5.00000  9.50000
     Atomic magnetic moment for atom  20 =  -0.50000
     SPIN  1
     eigenvalues:
       0.900  0.900  0.900  0.900  0.900
     eigenvectors (columns):
       1.000  0.000  0.000  0.000  0.000
       0.000  1.000  0.000  0.000  0.000
       0.000  0.000  1.000  0.000  0.000
       0.000  0.000  0.000  1.000  0.000
       0.000  0.000  0.000  0.000  1.000
     occupation matrix ns (before diag.):
       0.900  0.000  0.000  0.000  0.000
       0.000  0.900  0.000  0.000  0.000
       0.000  0.000  0.900  0.000  0.000
       0.000  0.000  0.000  0.900  0.000
       0.000  0.000  0.000  0.000  0.900
     SPIN  2
     eigenvalues:
       1.000  1.000  1.000  1.000  1.000
     eigenvectors (columns):
       1.000  0.000  0.000  0.000  0.000
       0.000  1.000  0.000  0.000  0.000
       0.000  0.000  1.000  0.000  0.000
       0.000  0.000  0.000  1.000  0.000
       0.000  0.000  0.000  0.000  1.000
     occupation matrix ns (before diag.):
       1.000  0.000  0.000  0.000  0.000
       0.000  1.000  0.000  0.000  0.000
       0.000  0.000  1.000  0.000  0.000
       0.000  0.000  0.000  1.000  0.000
       0.000  0.000  0.000  0.000  1.000
     ------------------------ ATOM   21 ------------------------
     Tr[ns( 21)] (up, down, total) =   4.50000  5.00000  9.50000
     Atomic magnetic moment for atom  21 =  -0.50000
     SPIN  1
     eigenvalues:
       0.900  0.900  0.900  0.900  0.900
     eigenvectors (columns):
       1.000  0.000  0.000  0.000  0.000
       0.000  1.000  0.000  0.000  0.000
       0.000  0.000  1.000  0.000  0.000
       0.000  0.000  0.000  1.000  0.000
       0.000  0.000  0.000  0.000  1.000
     occupation matrix ns (before diag.):
       0.900  0.000  0.000  0.000  0.000
       0.000  0.900  0.000  0.000  0.000
       0.000  0.000  0.900  0.000  0.000
       0.000  0.000  0.000  0.900  0.000
       0.000  0.000  0.000  0.000  0.900
     SPIN  2
     eigenvalues:
       1.000  1.000  1.000  1.000  1.000
     eigenvectors (columns):
       1.000  0.000  0.000  0.000  0.000
       0.000  1.000  0.000  0.000  0.000
       0.000  0.000  1.000  0.000  0.000
       0.000  0.000  0.000  1.000  0.000
       0.000  0.000  0.000  0.000  1.000
     occupation matrix ns (before diag.):
       1.000  0.000  0.000  0.000  0.000
       0.000  1.000  0.000  0.000  0.000
       0.000  0.000  1.000  0.000  0.000
       0.000  0.000  0.000  1.000  0.000
       0.000  0.000  0.000  0.000  1.000
     ------------------------ ATOM   23 ------------------------
     Tr[ns( 23)] (up, down, total) =   5.00000  4.50000  9.50000
     Atomic magnetic moment for atom  23 =   0.50000
     SPIN  1
     eigenvalues:
       1.000  1.000  1.000  1.000  1.000
     eigenvectors (columns):
       1.000  0.000  0.000  0.000  0.000
       0.000  1.000  0.000  0.000  0.000
       0.000  0.000  1.000  0.000  0.000
       0.000  0.000  0.000  1.000  0.000
       0.000  0.000  0.000  0.000  1.000
     occupation matrix ns (before diag.):
       1.000  0.000  0.000  0.000  0.000
       0.000  1.000  0.000  0.000  0.000
       0.000  0.000  1.000  0.000  0.000
       0.000  0.000  0.000  1.000  0.000
       0.000  0.000  0.000  0.000  1.000
     SPIN  2
     eigenvalues:
       0.900  0.900  0.900  0.900  0.900
     eigenvectors (columns):
       1.000  0.000  0.000  0.000  0.000
       0.000  1.000  0.000  0.000  0.000
       0.000  0.000  1.000  0.000  0.000
       0.000  0.000  0.000  1.000  0.000
       0.000  0.000  0.000  0.000  1.000
     occupation matrix ns (before diag.):
       0.900  0.000  0.000  0.000  0.000
       0.000  0.900  0.000  0.000  0.000
       0.000  0.000  0.900  0.000  0.000
       0.000  0.000  0.000  0.900  0.000
       0.000  0.000  0.000  0.000  0.900
     ------------------------ ATOM   24 ------------------------
     Tr[ns( 24)] (up, down, total) =   5.00000  4.50000  9.50000
     Atomic magnetic moment for atom  24 =   0.50000
     SPIN  1
     eigenvalues:
       1.000  1.000  1.000  1.000  1.000
     eigenvectors (columns):
       1.000  0.000  0.000  0.000  0.000
       0.000  1.000  0.000  0.000  0.000
       0.000  0.000  1.000  0.000  0.000
       0.000  0.000  0.000  1.000  0.000
       0.000  0.000  0.000  0.000  1.000
     occupation matrix ns (before diag.):
       1.000  0.000  0.000  0.000  0.000
       0.000  1.000  0.000  0.000  0.000
       0.000  0.000  1.000  0.000  0.000
       0.000  0.000  0.000  1.000  0.000
       0.000  0.000  0.000  0.000  1.000
     SPIN  2
     eigenvalues:
       0.900  0.900  0.900  0.900  0.900
     eigenvectors (columns):
       1.000  0.000  0.000  0.000  0.000
       0.000  1.000  0.000  0.000  0.000
       0.000  0.000  1.000  0.000  0.000
       0.000  0.000  0.000  1.000  0.000
       0.000  0.000  0.000  0.000  1.000
     occupation matrix ns (before diag.):
       0.900  0.000  0.000  0.000  0.000
       0.000  0.900  0.000  0.000  0.000
       0.000  0.000  0.900  0.000  0.000
       0.000  0.000  0.000  0.900  0.000
       0.000  0.000  0.000  0.000  0.900

     Number of occupied Hubbard levels =   76.0000

     Atomic wfc used for Hubbard projectors are orthogonalized

     Starting wfcs are  296 randomized atomic wfcs

     total cpu time spent up to now is       13.9 secs

     Self-consistent Calculation

     iteration #  1     ecut=    60.00 Ry     beta= 0.10
     Davidson diagonalization with overlap

---- Real-time Memory Report at c_bands before calling an iterative solver
          1003 MiB given to the printing process from OS
             0 MiB allocation reported by mallinfo(arena+hblkhd)
          5723 MiB available memory on the node where the printing process lives
------------------
     ethr =  1.00E-02,  avg # of iterations =  8.0
     Minimization algorithm failed to find Fermi energy: reverting to bisection
     Possible cause: smearing is larger than the electronic band-gap.

     =================== HUBBARD OCCUPATIONS ===================
     ------------------------ ATOM   14 ------------------------
     Tr[ns( 14)] (up, down, total) =   4.80866  4.44385  9.25251
     Atomic magnetic moment for atom  14 =   0.36481
     SPIN  1
     eigenvalues:
       0.884  0.946  0.993  0.993  0.994
     eigenvectors (columns):
      -0.000  1.000 -0.000 -0.000  0.000
      -0.000  0.000  0.322  0.947  0.000
      -0.000  0.000  0.947 -0.322  0.000
       1.000  0.000  0.000  0.000 -0.000
       0.000 -0.000 -0.000 -0.000  1.000
     occupation matrix ns (before diag.):
       0.946 -0.000 -0.000  0.000  0.000
      -0.000  0.993 -0.000  0.000  0.000
      -0.000 -0.000  0.993  0.000  0.000
       0.000  0.000  0.000  0.884 -0.000
       0.000  0.000  0.000 -0.000  0.994
     SPIN  2
     eigenvalues:
       0.547  0.927  0.989  0.989  0.991
     eigenvectors (columns):
      -0.000  1.000 -0.000 -0.000  0.000
      -0.000  0.000  0.362  0.932  0.000
      -0.000  0.000  0.932 -0.362  0.000
       1.000  0.000  0.000  0.000 -0.000
       0.000 -0.000 -0.000 -0.000  1.000
     occupation matrix ns (before diag.):
       0.927 -0.000 -0.000  0.000  0.000
      -0.000  0.989 -0.000  0.000  0.000
      -0.000 -0.000  0.989  0.000  0.000
       0.000  0.000  0.000  0.547 -0.000
       0.000  0.000  0.000 -0.000  0.991
     ------------------------ ATOM   15 ------------------------
     Tr[ns( 15)] (up, down, total) =   4.80866  4.44385  9.25251
     Atomic magnetic moment for atom  15 =   0.36481
     SPIN  1
     eigenvalues:
       0.884  0.946  0.993  0.993  0.994
     eigenvectors (columns):
      -0.000  1.000 -0.000 -0.000  0.000
      -0.000  0.000  0.327  0.945  0.000
      -0.000  0.000  0.945 -0.327  0.000
       1.000  0.000  0.000  0.000 -0.000
       0.000 -0.000 -0.000 -0.000  1.000
     occupation matrix ns (before diag.):
       0.946 -0.000 -0.000  0.000  0.000
      -0.000  0.993 -0.000  0.000  0.000
      -0.000 -0.000  0.993  0.000  0.000
       0.000  0.000  0.000  0.884 -0.000
       0.000  0.000  0.000 -0.000  0.994
     SPIN  2
     eigenvalues:
       0.547  0.927  0.989  0.989  0.991
     eigenvectors (columns):
      -0.000  1.000 -0.000 -0.000  0.000
      -0.000  0.000  0.389  0.921  0.000
      -0.000  0.000  0.921 -0.389  0.000
       1.000  0.000  0.000  0.000 -0.000
       0.000 -0.000 -0.000 -0.000  1.000
     occupation matrix ns (before diag.):
       0.927 -0.000 -0.000  0.000  0.000
      -0.000  0.989 -0.000  0.000  0.000
      -0.000 -0.000  0.989  0.000  0.000
       0.000  0.000  0.000  0.547 -0.000
       0.000  0.000  0.000 -0.000  0.991
     ------------------------ ATOM   17 ------------------------
     Tr[ns( 17)] (up, down, total) =   4.44431  4.80860  9.25291
     Atomic magnetic moment for atom  17 =  -0.36430
     SPIN  1
     eigenvalues:
       0.548  0.927  0.989  0.989  0.991
     eigenvectors (columns):
      -0.000  1.000 -0.000 -0.000  0.000
      -0.000  0.000  0.000  1.000  0.000
      -0.000  0.000  1.000 -0.000  0.000
       1.000  0.000  0.000  0.000 -0.000
       0.000 -0.000 -0.000 -0.000  1.000
     occupation matrix ns (before diag.):
       0.927 -0.000 -0.000  0.000  0.000
      -0.000  0.989 -0.000  0.000  0.000
      -0.000 -0.000  0.989  0.000  0.000
       0.000  0.000  0.000  0.548 -0.000
       0.000  0.000  0.000 -0.000  0.991
     SPIN  2
     eigenvalues:
       0.884  0.946  0.993  0.993  0.994
     eigenvectors (columns):
      -0.000  1.000 -0.000 -0.000  0.000
      -0.000  0.000  1.000 -0.000  0.000
      -0.000  0.000  0.000  1.000  0.000
       1.000  0.000  0.000  0.000 -0.000
       0.000 -0.000 -0.000 -0.000  1.000
     occupation matrix ns (before diag.):
       0.946 -0.000 -0.000  0.000  0.000
      -0.000  0.993 -0.000  0.000  0.000
      -0.000 -0.000  0.993  0.000  0.000
       0.000  0.000  0.000  0.884 -0.000
       0.000  0.000  0.000 -0.000  0.994
     ------------------------ ATOM   18 ------------------------
     Tr[ns( 18)] (up, down, total) =   4.44431  4.80860  9.25291
     Atomic magnetic moment for atom  18 =  -0.36430
     SPIN  1
     eigenvalues:
       0.548  0.927  0.989  0.989  0.991
     eigenvectors (columns):
      -0.000  1.000 -0.000 -0.000  0.000
      -0.000  0.000  0.000  1.000  0.000
      -0.000  0.000  1.000 -0.000  0.000
       1.000  0.000  0.000  0.000 -0.000
       0.000 -0.000 -0.000 -0.000  1.000
     occupation matrix ns (before diag.):
       0.927 -0.000 -0.000  0.000  0.000
      -0.000  0.989 -0.000  0.000  0.000
      -0.000 -0.000  0.989  0.000  0.000
       0.000  0.000  0.000  0.548 -0.000
       0.000  0.000  0.000 -0.000  0.991
     SPIN  2
     eigenvalues:
       0.884  0.946  0.993  0.993  0.994
     eigenvectors (columns):
      -0.000  1.000 -0.000 -0.000  0.000
      -0.000  0.000  1.000 -0.000  0.000
      -0.000  0.000  0.000  1.000  0.000
       1.000  0.000  0.000  0.000 -0.000
       0.000 -0.000 -0.000 -0.000  1.000
     occupation matrix ns (before diag.):
       0.946 -0.000 -0.000  0.000  0.000
      -0.000  0.993 -0.000  0.000  0.000
      -0.000 -0.000  0.993  0.000  0.000
       0.000  0.000  0.000  0.884 -0.000
       0.000  0.000  0.000 -0.000  0.994
     ------------------------ ATOM   20 ------------------------
     Tr[ns( 20)] (up, down, total) =   4.44431  4.80860  9.25291
     Atomic magnetic moment for atom  20 =  -0.36430
     SPIN  1
     eigenvalues:
       0.548  0.927  0.989  0.989  0.991
     eigenvectors (columns):
       0.000  1.000 -0.000 -0.000  0.000
      -0.000  0.000  1.000 -0.000  0.000
      -0.000  0.000  0.000  1.000  0.000
       1.000 -0.000  0.000  0.000 -0.000
       0.000 -0.000 -0.000 -0.000  1.000
     occupation matrix ns (before diag.):
       0.927 -0.000 -0.000 -0.000  0.000
      -0.000  0.989 -0.000  0.000  0.000
      -0.000 -0.000  0.989  0.000  0.000
      -0.000  0.000  0.000  0.548 -0.000
       0.000  0.000  0.000 -0.000  0.991
     SPIN  2
     eigenvalues:
       0.884  0.946  0.993  0.993  0.994
     eigenvectors (columns):
       0.000  1.000 -0.000 -0.000  0.000
      -0.000  0.000  0.000  1.000  0.000
      -0.000  0.000  1.000 -0.000  0.000
       1.000 -0.000  0.000  0.000 -0.000
       0.000 -0.000 -0.000 -0.000  1.000
     occupation matrix ns (before diag.):
       0.946 -0.000 -0.000 -0.000  0.000
      -0.000  0.993 -0.000  0.000  0.000
      -0.000 -0.000  0.993  0.000  0.000
      -0.000  0.000  0.000  0.884 -0.000
       0.000  0.000  0.000 -0.000  0.994
     ------------------------ ATOM   21 ------------------------
     Tr[ns( 21)] (up, down, total) =   4.44431  4.80860  9.25291
     Atomic magnetic moment for atom  21 =  -0.36430
     SPIN  1
     eigenvalues:
       0.548  0.927  0.989  0.989  0.991
     eigenvectors (columns):
       0.000  1.000 -0.000 -0.000  0.000
      -0.000  0.000  1.000 -0.000  0.000
      -0.000  0.000  0.000  1.000  0.000
       1.000 -0.000  0.000  0.000 -0.000
       0.000 -0.000 -0.000 -0.000  1.000
     occupation matrix ns (before diag.):
       0.927 -0.000 -0.000 -0.000  0.000
      -0.000  0.989 -0.000  0.000  0.000
      -0.000 -0.000  0.989  0.000  0.000
      -0.000  0.000  0.000  0.548 -0.000
       0.000  0.000  0.000 -0.000  0.991
     SPIN  2
     eigenvalues:
       0.884  0.946  0.993  0.993  0.994
     eigenvectors (columns):
       0.000  1.000 -0.000 -0.000  0.000
      -0.000  0.000  0.000  1.000  0.000
      -0.000  0.000  1.000 -0.000  0.000
       1.000 -0.000  0.000  0.000 -0.000
       0.000 -0.000 -0.000 -0.000  1.000
     occupation matrix ns (before diag.):
       0.946 -0.000 -0.000 -0.000  0.000
      -0.000  0.993 -0.000  0.000  0.000
      -0.000 -0.000  0.993  0.000  0.000
      -0.000  0.000  0.000  0.884 -0.000
       0.000  0.000  0.000 -0.000  0.994
     ------------------------ ATOM   23 ------------------------
     Tr[ns( 23)] (up, down, total) =   4.80879  4.44385  9.25265
     Atomic magnetic moment for atom  23 =   0.36494
     SPIN  1
     eigenvalues:
       0.884  0.946  0.993  0.993  0.994
     eigenvectors (columns):
      -0.000  1.000 -0.000 -0.000  0.000
      -0.000  0.000  0.345  0.939  0.000
      -0.000  0.000  0.939 -0.345  0.000
       1.000  0.000  0.000  0.000 -0.000
       0.000 -0.000 -0.000 -0.000  1.000
     occupation matrix ns (before diag.):
       0.946 -0.000 -0.000  0.000  0.000
      -0.000  0.993 -0.000  0.000  0.000
      -0.000 -0.000  0.993  0.000  0.000
       0.000  0.000  0.000  0.884 -0.000
       0.000  0.000  0.000 -0.000  0.994
     SPIN  2
     eigenvalues:
       0.547  0.927  0.989  0.989  0.991
     eigenvectors (columns):
      -0.000  1.000 -0.000 -0.000  0.000
      -0.000  0.000  0.273  0.962  0.000
      -0.000  0.000  0.962 -0.273  0.000
       1.000  0.000  0.000  0.000 -0.000
       0.000 -0.000 -0.000 -0.000  1.000
     occupation matrix ns (before diag.):
       0.927 -0.000 -0.000  0.000  0.000
      -0.000  0.989 -0.000  0.000  0.000
      -0.000 -0.000  0.989  0.000  0.000
       0.000  0.000  0.000  0.547 -0.000
       0.000  0.000  0.000 -0.000  0.991
     ------------------------ ATOM   24 ------------------------
     Tr[ns( 24)] (up, down, total) =   4.80879  4.44385  9.25265
     Atomic magnetic moment for atom  24 =   0.36494
     SPIN  1
     eigenvalues:
       0.884  0.946  0.993  0.993  0.994
     eigenvectors (columns):
      -0.000  1.000 -0.000 -0.000  0.000
      -0.000  0.000  0.329  0.944  0.000
      -0.000  0.000  0.944 -0.329  0.000
       1.000  0.000  0.000  0.000 -0.000
       0.000 -0.000 -0.000 -0.000  1.000
     occupation matrix ns (before diag.):
       0.946 -0.000 -0.000  0.000  0.000
      -0.000  0.993 -0.000  0.000  0.000
      -0.000 -0.000  0.993  0.000  0.000
       0.000  0.000  0.000  0.884 -0.000
       0.000  0.000  0.000 -0.000  0.994
     SPIN  2
     eigenvalues:
       0.547  0.927  0.989  0.989  0.991
     eigenvectors (columns):
      -0.000  1.000 -0.000 -0.000  0.000
      -0.000  0.000  0.313  0.950  0.000
      -0.000  0.000  0.950 -0.313  0.000
       1.000  0.000  0.000  0.000 -0.000
       0.000 -0.000 -0.000 -0.000  1.000
     occupation matrix ns (before diag.):
       0.927 -0.000 -0.000  0.000  0.000
      -0.000  0.989 -0.000  0.000  0.000
      -0.000 -0.000  0.989  0.000  0.000
       0.000  0.000  0.000  0.547 -0.000
       0.000  0.000  0.000 -0.000  0.991

     Number of occupied Hubbard levels =   74.0219

     HUBBARD ENERGY =    0.3824  (Ry)

     total cpu time spent up to now is       44.3 secs

     total energy              =   -3086.42810876 Ry
     estimated scf accuracy    <      16.28370382 Ry

     total magnetization       =     0.00 Bohr mag/cell
     absolute magnetization    =     3.78 Bohr mag/cell

     iteration #  2     ecut=    60.00 Ry     beta= 0.10
     Davidson diagonalization with overlap

---- Real-time Memory Report at c_bands before calling an iterative solver
          1399 MiB given to the printing process from OS
             0 MiB allocation reported by mallinfo(arena+hblkhd)
          5373 MiB available memory on the node where the printing process lives
------------------
     ethr =  4.07E-03,  avg # of iterations =  2.0

     =================== HUBBARD OCCUPATIONS ===================
     ------------------------ ATOM   14 ------------------------
     Tr[ns( 14)] (up, down, total) =   4.84446  4.28088  9.12533
     Atomic magnetic moment for atom  14 =   0.56358
     SPIN  1
     eigenvalues:
       0.908  0.955  0.993  0.993  0.995
     eigenvectors (columns):
      -0.000  1.000 -0.000 -0.000  0.000
      -0.000  0.000  0.341  0.940  0.000
      -0.000  0.000  0.940 -0.341  0.000
       1.000  0.000  0.000  0.000 -0.000
       0.000 -0.000 -0.000 -0.000  1.000
     occupation matrix ns (before diag.):
       0.955 -0.000 -0.000  0.000  0.000
      -0.000  0.993 -0.000  0.000  0.000
      -0.000 -0.000  0.993  0.000  0.000
       0.000  0.000  0.000  0.908 -0.000
       0.000  0.000  0.000 -0.000  0.995
     SPIN  2
     eigenvalues:
       0.362  0.945  0.991  0.991  0.993
     eigenvectors (columns):
      -0.000 -1.000 -0.000 -0.000  0.000
       0.000 -0.000  0.396  0.918  0.000
       0.000 -0.000  0.918 -0.396  0.000
      -1.000  0.000  0.000  0.000 -0.000
      -0.000  0.000 -0.000 -0.000  1.000
     occupation matrix ns (before diag.):
       0.945 -0.000 -0.000 -0.000  0.000
      -0.000  0.991 -0.000  0.000  0.000
      -0.000 -0.000  0.991  0.000  0.000
      -0.000  0.000  0.000  0.362 -0.000
       0.000  0.000  0.000 -0.000  0.993
     ------------------------ ATOM   15 ------------------------
     Tr[ns( 15)] (up, down, total) =   4.84446  4.28088  9.12533
     Atomic magnetic moment for atom  15 =   0.56358
     SPIN  1
     eigenvalues:
       0.908  0.955  0.993  0.993  0.995
     eigenvectors (columns):
      -0.000  1.000 -0.000 -0.000  0.000
      -0.000  0.000  0.324  0.946  0.000
      -0.000  0.000  0.946 -0.324  0.000
       1.000  0.000  0.000  0.000 -0.000
       0.000 -0.000 -0.000 -0.000  1.000
     occupation matrix ns (before diag.):
       0.955 -0.000 -0.000  0.000  0.000
      -0.000  0.993 -0.000  0.000  0.000
      -0.000 -0.000  0.993  0.000  0.000
       0.000  0.000  0.000  0.908 -0.000
       0.000  0.000  0.000 -0.000  0.995
     SPIN  2
     eigenvalues:
       0.362  0.945  0.991  0.991  0.993
     eigenvectors (columns):
      -0.000 -1.000 -0.000 -0.000  0.000
       0.000 -0.000  0.391  0.920  0.000
       0.000 -0.000  0.920 -0.391  0.000
      -1.000  0.000  0.000  0.000 -0.000
      -0.000  0.000 -0.000 -0.000  1.000
     occupation matrix ns (before diag.):
       0.945 -0.000 -0.000 -0.000  0.000
      -0.000  0.991 -0.000  0.000  0.000
      -0.000 -0.000  0.991  0.000  0.000
      -0.000  0.000  0.000  0.362 -0.000
       0.000  0.000  0.000 -0.000  0.993
     ------------------------ ATOM   17 ------------------------
     Tr[ns( 17)] (up, down, total) =   4.28125  4.84426  9.12551
     Atomic magnetic moment for atom  17 =  -0.56301
     SPIN  1
     eigenvalues:
       0.362  0.945  0.991  0.991  0.993
     eigenvectors (columns):
      -0.000 -1.000 -0.000 -0.000  0.000
       0.000 -0.000  0.000  1.000  0.000
       0.000 -0.000  1.000 -0.000  0.000
      -1.000  0.000  0.000  0.000 -0.000
      -0.000  0.000 -0.000 -0.000  1.000
     occupation matrix ns (before diag.):
       0.945 -0.000 -0.000 -0.000  0.000
      -0.000  0.991 -0.000  0.000  0.000
      -0.000 -0.000  0.991  0.000  0.000
      -0.000  0.000  0.000  0.362 -0.000
       0.000  0.000  0.000 -0.000  0.993
     SPIN  2
     eigenvalues:
       0.908  0.955  0.993  0.993  0.995
     eigenvectors (columns):
      -0.000  1.000 -0.000 -0.000  0.000
      -0.000  0.000  0.000  1.000  0.000
      -0.000  0.000  1.000 -0.000  0.000
       1.000  0.000  0.000  0.000 -0.000
       0.000 -0.000 -0.000 -0.000  1.000
     occupation matrix ns (before diag.):
       0.955 -0.000 -0.000  0.000  0.000
      -0.000  0.993 -0.000  0.000  0.000
      -0.000 -0.000  0.993  0.000  0.000
       0.000  0.000  0.000  0.908 -0.000
       0.000  0.000  0.000 -0.000  0.995
     ------------------------ ATOM   18 ------------------------
     Tr[ns( 18)] (up, down, total) =   4.28125  4.84426  9.12551
     Atomic magnetic moment for atom  18 =  -0.56301
     SPIN  1
     eigenvalues:
       0.362  0.945  0.991  0.991  0.993
     eigenvectors (columns):
      -0.000 -1.000 -0.000 -0.000  0.000
       0.000 -0.000  0.000  1.000  0.000
       0.000 -0.000  1.000 -0.000  0.000
      -1.000  0.000  0.000  0.000 -0.000
      -0.000  0.000 -0.000 -0.000  1.000
     occupation matrix ns (before diag.):
       0.945 -0.000 -0.000 -0.000  0.000
      -0.000  0.991 -0.000  0.000  0.000
      -0.000 -0.000  0.991  0.000  0.000
      -0.000  0.000  0.000  0.362 -0.000
       0.000  0.000  0.000 -0.000  0.993
     SPIN  2
     eigenvalues:
       0.908  0.955  0.993  0.993  0.995
     eigenvectors (columns):
      -0.000  1.000 -0.000 -0.000  0.000
      -0.000  0.000  0.000  1.000  0.000
      -0.000  0.000  1.000 -0.000  0.000
       1.000  0.000  0.000  0.000 -0.000
       0.000 -0.000 -0.000 -0.000  1.000
     occupation matrix ns (before diag.):
       0.955 -0.000 -0.000  0.000  0.000
      -0.000  0.993 -0.000  0.000  0.000
      -0.000 -0.000  0.993  0.000  0.000
       0.000  0.000  0.000  0.908 -0.000
       0.000  0.000  0.000 -0.000  0.995
     ------------------------ ATOM   20 ------------------------
     Tr[ns( 20)] (up, down, total) =   4.28125  4.84426  9.12551
     Atomic magnetic moment for atom  20 =  -0.56301
     SPIN  1
     eigenvalues:
       0.362  0.945  0.991  0.991  0.993
     eigenvectors (columns):
       0.000 -1.000 -0.000 -0.000  0.000
       0.000 -0.000  1.000 -0.000  0.000
       0.000 -0.000  0.000  1.000  0.000
      -1.000 -0.000  0.000  0.000 -0.000
      -0.000  0.000 -0.000 -0.000  1.000
     occupation matrix ns (before diag.):
       0.945 -0.000 -0.000  0.000  0.000
      -0.000  0.991 -0.000  0.000  0.000
      -0.000 -0.000  0.991  0.000  0.000
       0.000  0.000  0.000  0.362 -0.000
       0.000  0.000  0.000 -0.000  0.993
     SPIN  2
     eigenvalues:
       0.908  0.955  0.993  0.993  0.995
     eigenvectors (columns):
       0.000  1.000 -0.000 -0.000  0.000
      -0.000  0.000  1.000 -0.000  0.000
      -0.000  0.000  0.000  1.000  0.000
       1.000 -0.000  0.000  0.000 -0.000
       0.000 -0.000 -0.000 -0.000  1.000
     occupation matrix ns (before diag.):
       0.955 -0.000 -0.000 -0.000  0.000
      -0.000  0.993 -0.000  0.000  0.000
      -0.000 -0.000  0.993  0.000  0.000
      -0.000  0.000  0.000  0.908 -0.000
       0.000  0.000  0.000 -0.000  0.995
     ------------------------ ATOM   21 ------------------------
     Tr[ns( 21)] (up, down, total) =   4.28125  4.84426  9.12551
     Atomic magnetic moment for atom  21 =  -0.56301
     SPIN  1
     eigenvalues:
       0.362  0.945  0.991  0.991  0.993
     eigenvectors (columns):
       0.000 -1.000 -0.000 -0.000  0.000
       0.000 -0.000  1.000 -0.000  0.000
       0.000 -0.000  0.000  1.000  0.000
      -1.000 -0.000  0.000  0.000 -0.000
      -0.000  0.000 -0.000 -0.000  1.000
     occupation matrix ns (before diag.):
       0.945 -0.000 -0.000  0.000  0.000
      -0.000  0.991 -0.000  0.000  0.000
      -0.000 -0.000  0.991  0.000  0.000
       0.000  0.000  0.000  0.362 -0.000
       0.000  0.000  0.000 -0.000  0.993
     SPIN  2
     eigenvalues:
       0.908  0.955  0.993  0.993  0.995
     eigenvectors (columns):
       0.000  1.000 -0.000 -0.000  0.000
      -0.000  0.000  1.000 -0.000  0.000
      -0.000  0.000  0.000  1.000  0.000
       1.000 -0.000  0.000  0.000 -0.000
       0.000 -0.000 -0.000 -0.000  1.000
     occupation matrix ns (before diag.):
       0.955 -0.000 -0.000 -0.000  0.000
      -0.000  0.993 -0.000  0.000  0.000
      -0.000 -0.000  0.993  0.000  0.000
      -0.000  0.000  0.000  0.908 -0.000
       0.000  0.000  0.000 -0.000  0.995
     ------------------------ ATOM   23 ------------------------
     Tr[ns( 23)] (up, down, total) =   4.84459  4.28116  9.12575
     Atomic magnetic moment for atom  23 =   0.56343
     SPIN  1
     eigenvalues:
       0.908  0.955  0.993  0.993  0.995
     eigenvectors (columns):
      -0.000  1.000 -0.000 -0.000  0.000
      -0.000  0.000  0.345  0.939  0.000
      -0.000  0.000  0.939 -0.345  0.000
       1.000  0.000  0.000  0.000 -0.000
       0.000 -0.000 -0.000 -0.000  1.000
     occupation matrix ns (before diag.):
       0.955 -0.000 -0.000  0.000  0.000
      -0.000  0.993 -0.000  0.000  0.000
      -0.000 -0.000  0.993  0.000  0.000
       0.000  0.000  0.000  0.908 -0.000
       0.000  0.000  0.000 -0.000  0.995
     SPIN  2
     eigenvalues:
       0.362  0.945  0.991  0.991  0.993
     eigenvectors (columns):
       0.000 -1.000 -0.000 -0.000  0.000
       0.000 -0.000  0.331  0.944  0.000
       0.000 -0.000  0.944 -0.331  0.000
      -1.000 -0.000  0.000  0.000 -0.000
      -0.000  0.000 -0.000 -0.000  1.000
     occupation matrix ns (before diag.):
       0.945 -0.000 -0.000 -0.000  0.000
      -0.000  0.991 -0.000  0.000  0.000
      -0.000 -0.000  0.991  0.000  0.000
      -0.000  0.000  0.000  0.362 -0.000
       0.000  0.000  0.000 -0.000  0.993
     ------------------------ ATOM   24 ------------------------
     Tr[ns( 24)] (up, down, total) =   4.84459  4.28116  9.12575
     Atomic magnetic moment for atom  24 =   0.56343
     SPIN  1
     eigenvalues:
       0.908  0.955  0.993  0.993  0.995
     eigenvectors (columns):
      -0.000  1.000 -0.000 -0.000  0.000
      -0.000  0.000  0.319  0.948  0.000
      -0.000  0.000  0.948 -0.319  0.000
       1.000  0.000  0.000  0.000 -0.000
       0.000 -0.000 -0.000 -0.000  1.000
     occupation matrix ns (before diag.):
       0.955 -0.000 -0.000  0.000  0.000
      -0.000  0.993 -0.000  0.000  0.000
      -0.000 -0.000  0.993  0.000  0.000
       0.000  0.000  0.000  0.908 -0.000
       0.000  0.000  0.000 -0.000  0.995
     SPIN  2
     eigenvalues:
       0.362  0.945  0.991  0.991  0.993
     eigenvectors (columns):
      -0.000 -1.000 -0.000 -0.000  0.000
       0.000 -0.000  0.395  0.919  0.000
       0.000 -0.000  0.919 -0.395  0.000
      -1.000  0.000  0.000  0.000 -0.000
      -0.000  0.000 -0.000 -0.000  1.000
     occupation matrix ns (before diag.):
       0.945 -0.000 -0.000 -0.000  0.000
      -0.000  0.991 -0.000  0.000  0.000
      -0.000 -0.000  0.991  0.000  0.000
      -0.000  0.000  0.000  0.362 -0.000
       0.000  0.000  0.000 -0.000  0.993

     Number of occupied Hubbard levels =   73.0042

     HUBBARD ENERGY =    0.3823  (Ry)

     total cpu time spent up to now is       73.8 secs

     total energy              =   -3087.00492834 Ry
     estimated scf accuracy    <     144.21069216 Ry

     total magnetization       =    -0.00 Bohr mag/cell
     absolute magnetization    =     9.41 Bohr mag/cell

     iteration #  3     ecut=    60.00 Ry     beta= 0.10
     Davidson diagonalization with overlap

---- Real-time Memory Report at c_bands before calling an iterative solver
          1406 MiB given to the printing process from OS
             0 MiB allocation reported by mallinfo(arena+hblkhd)
          5356 MiB available memory on the node where the printing process lives
------------------
     ethr =  4.07E-03,  avg # of iterations =  2.0

     =================== HUBBARD OCCUPATIONS ===================
     ------------------------ ATOM   14 ------------------------
     Tr[ns( 14)] (up, down, total) =   4.84520  4.28522  9.13042
     Atomic magnetic moment for atom  14 =   0.55998
     SPIN  1
     eigenvalues:
       0.908  0.955  0.993  0.993  0.995
     eigenvectors (columns):
      -0.000  1.000 -0.000 -0.000  0.000
      -0.000  0.000  0.315  0.949  0.000
      -0.000  0.000  0.949 -0.315  0.000
       1.000  0.000  0.000  0.000 -0.000
       0.000 -0.000 -0.000 -0.000  1.000
     occupation matrix ns (before diag.):
       0.955 -0.000 -0.000  0.000  0.000
      -0.000  0.993 -0.000  0.000  0.000
      -0.000 -0.000  0.993  0.000  0.000
       0.000  0.000  0.000  0.908 -0.000
       0.000  0.000  0.000 -0.000  0.995
     SPIN  2
     eigenvalues:
       0.365  0.946  0.991  0.991  0.993
     eigenvectors (columns):
       0.000 -1.000 -0.000 -0.000  0.000
       0.000 -0.000  0.272  0.962  0.000
       0.000 -0.000  0.962 -0.272  0.000
      -1.000 -0.000  0.000  0.000 -0.000
      -0.000  0.000 -0.000 -0.000  1.000
     occupation matrix ns (before diag.):
       0.946 -0.000 -0.000 -0.000  0.000
      -0.000  0.991 -0.000  0.000  0.000
      -0.000 -0.000  0.991  0.000  0.000
      -0.000  0.000  0.000  0.365 -0.000
       0.000  0.000  0.000 -0.000  0.993
     ------------------------ ATOM   15 ------------------------
     Tr[ns( 15)] (up, down, total) =   4.84520  4.28522  9.13042
     Atomic magnetic moment for atom  15 =   0.55998
     SPIN  1
     eigenvalues:
       0.908  0.955  0.993  0.993  0.995
     eigenvectors (columns):
      -0.000  1.000 -0.000 -0.000  0.000
      -0.000  0.000  0.330  0.944  0.000
      -0.000  0.000  0.944 -0.330  0.000
       1.000  0.000  0.000  0.000 -0.000
       0.000 -0.000 -0.000 -0.000  1.000
     occupation matrix ns (before diag.):
       0.955 -0.000 -0.000  0.000  0.000
      -0.000  0.993 -0.000  0.000  0.000
      -0.000 -0.000  0.993  0.000  0.000
       0.000  0.000  0.000  0.908 -0.000
       0.000  0.000  0.000 -0.000  0.995
     SPIN  2
     eigenvalues:
       0.365  0.946  0.991  0.991  0.993
     eigenvectors (columns):
       0.000 -1.000 -0.000 -0.000  0.000
       0.000 -0.000  0.355  0.935  0.000
       0.000 -0.000  0.935 -0.355  0.000
      -1.000 -0.000  0.000  0.000 -0.000
      -0.000  0.000 -0.000 -0.000  1.000
     occupation matrix ns (before diag.):
       0.946 -0.000 -0.000 -0.000  0.000
      -0.000  0.991 -0.000  0.000  0.000
      -0.000 -0.000  0.991  0.000  0.000
      -0.000  0.000  0.000  0.365 -0.000
       0.000  0.000  0.000 -0.000  0.993
     ------------------------ ATOM   17 ------------------------
     Tr[ns( 17)] (up, down, total) =   4.28561  4.84508  9.13069
     Atomic magnetic moment for atom  17 =  -0.55947
     SPIN  1
     eigenvalues:
       0.365  0.946  0.991  0.991  0.993
     eigenvectors (columns):
      -0.000 -1.000 -0.000 -0.000  0.000
       0.000 -0.000  0.000  1.000  0.000
       0.000 -0.000  1.000 -0.000  0.000
      -1.000  0.000  0.000  0.000 -0.000
      -0.000  0.000 -0.000 -0.000  1.000
     occupation matrix ns (before diag.):
       0.946 -0.000 -0.000 -0.000  0.000
      -0.000  0.991 -0.000  0.000  0.000
      -0.000 -0.000  0.991  0.000  0.000
      -0.000  0.000  0.000  0.365 -0.000
       0.000  0.000  0.000 -0.000  0.993
     SPIN  2
     eigenvalues:
       0.908  0.955  0.993  0.993  0.995
     eigenvectors (columns):
      -0.000  1.000 -0.000 -0.000  0.000
      -0.000  0.000  0.000  1.000  0.000
      -0.000  0.000  1.000 -0.000  0.000
       1.000  0.000  0.000  0.000 -0.000
       0.000 -0.000 -0.000 -0.000  1.000
     occupation matrix ns (before diag.):
       0.955 -0.000 -0.000  0.000  0.000
      -0.000  0.993 -0.000  0.000  0.000
      -0.000 -0.000  0.993  0.000  0.000
       0.000  0.000  0.000  0.908 -0.000
       0.000  0.000  0.000 -0.000  0.995
     ------------------------ ATOM   18 ------------------------
     Tr[ns( 18)] (up, down, total) =   4.28561  4.84508  9.13069
     Atomic magnetic moment for atom  18 =  -0.55947
     SPIN  1
     eigenvalues:
       0.365  0.946  0.991  0.991  0.993
     eigenvectors (columns):
      -0.000 -1.000 -0.000 -0.000  0.000
       0.000 -0.000  0.000  1.000  0.000
       0.000 -0.000  1.000 -0.000  0.000
      -1.000  0.000  0.000  0.000 -0.000
      -0.000  0.000 -0.000 -0.000  1.000
     occupation matrix ns (before diag.):
       0.946 -0.000 -0.000 -0.000  0.000
      -0.000  0.991 -0.000  0.000  0.000
      -0.000 -0.000  0.991  0.000  0.000
      -0.000  0.000  0.000  0.365 -0.000
       0.000  0.000  0.000 -0.000  0.993
     SPIN  2
     eigenvalues:
       0.908  0.955  0.993  0.993  0.995
     eigenvectors (columns):
      -0.000  1.000 -0.000 -0.000  0.000
      -0.000  0.000  0.000  1.000  0.000
      -0.000  0.000  1.000 -0.000  0.000
       1.000  0.000  0.000  0.000 -0.000
       0.000 -0.000 -0.000 -0.000  1.000
     occupation matrix ns (before diag.):
       0.955 -0.000 -0.000  0.000  0.000
      -0.000  0.993 -0.000  0.000  0.000
      -0.000 -0.000  0.993  0.000  0.000
       0.000  0.000  0.000  0.908 -0.000
       0.000  0.000  0.000 -0.000  0.995
     ------------------------ ATOM   20 ------------------------
     Tr[ns( 20)] (up, down, total) =   4.28561  4.84508  9.13069
     Atomic magnetic moment for atom  20 =  -0.55947
     SPIN  1
     eigenvalues:
       0.365  0.946  0.991  0.991  0.993
     eigenvectors (columns):
       0.000 -1.000 -0.000 -0.000  0.000
       0.000 -0.000  1.000 -0.000  0.000
       0.000 -0.000  0.000  1.000  0.000
      -1.000 -0.000  0.000  0.000 -0.000
      -0.000  0.000 -0.000 -0.000  1.000
     occupation matrix ns (before diag.):
       0.946 -0.000 -0.000  0.000  0.000
      -0.000  0.991 -0.000  0.000  0.000
      -0.000 -0.000  0.991  0.000  0.000
       0.000  0.000  0.000  0.365 -0.000
       0.000  0.000  0.000 -0.000  0.993
     SPIN  2
     eigenvalues:
       0.908  0.955  0.993  0.993  0.995
     eigenvectors (columns):
       0.000  1.000 -0.000 -0.000  0.000
      -0.000  0.000  1.000 -0.000  0.000
      -0.000  0.000  0.000  1.000  0.000
       1.000 -0.000  0.000  0.000 -0.000
       0.000 -0.000 -0.000 -0.000  1.000
     occupation matrix ns (before diag.):
       0.955 -0.000 -0.000 -0.000  0.000
      -0.000  0.993 -0.000  0.000  0.000
      -0.000 -0.000  0.993  0.000  0.000
      -0.000  0.000  0.000  0.908 -0.000
       0.000  0.000  0.000 -0.000  0.995
     ------------------------ ATOM   21 ------------------------
     Tr[ns( 21)] (up, down, total) =   4.28561  4.84508  9.13069
     Atomic magnetic moment for atom  21 =  -0.55947
     SPIN  1
     eigenvalues:
       0.365  0.946  0.991  0.991  0.993
     eigenvectors (columns):
       0.000 -1.000 -0.000 -0.000  0.000
       0.000 -0.000  1.000 -0.000  0.000
       0.000 -0.000  0.000  1.000  0.000
      -1.000 -0.000  0.000  0.000 -0.000
      -0.000  0.000 -0.000 -0.000  1.000
     occupation matrix ns (before diag.):
       0.946 -0.000 -0.000  0.000  0.000
      -0.000  0.991 -0.000  0.000  0.000
      -0.000 -0.000  0.991  0.000  0.000
       0.000  0.000  0.000  0.365 -0.000
       0.000  0.000  0.000 -0.000  0.993
     SPIN  2
     eigenvalues:
       0.908  0.955  0.993  0.993  0.995
     eigenvectors (columns):
       0.000  1.000 -0.000 -0.000  0.000
      -0.000  0.000  1.000 -0.000  0.000
      -0.000  0.000  0.000  1.000  0.000
       1.000 -0.000  0.000  0.000 -0.000
       0.000 -0.000 -0.000 -0.000  1.000
     occupation matrix ns (before diag.):
       0.955 -0.000 -0.000 -0.000  0.000
      -0.000  0.993 -0.000  0.000  0.000
      -0.000 -0.000  0.993  0.000  0.000
      -0.000  0.000  0.000  0.908 -0.000
       0.000  0.000  0.000 -0.000  0.995
     ------------------------ ATOM   23 ------------------------
     Tr[ns( 23)] (up, down, total) =   4.84532  4.28549  9.13081
     Atomic magnetic moment for atom  23 =   0.55983
     SPIN  1
     eigenvalues:
       0.908  0.955  0.993  0.993  0.995
     eigenvectors (columns):
      -0.000  1.000 -0.000 -0.000  0.000
      -0.000  0.000  0.359  0.933  0.000
      -0.000  0.000  0.933 -0.359  0.000
       1.000  0.000  0.000  0.000 -0.000
       0.000 -0.000 -0.000 -0.000  1.000
     occupation matrix ns (before diag.):
       0.955 -0.000 -0.000  0.000  0.000
      -0.000  0.993 -0.000  0.000  0.000
      -0.000 -0.000  0.993  0.000  0.000
       0.000  0.000  0.000  0.908 -0.000
       0.000  0.000  0.000 -0.000  0.995
     SPIN  2
     eigenvalues:
       0.365  0.946  0.991  0.991  0.993
     eigenvectors (columns):
       0.000 -1.000 -0.000 -0.000  0.000
       0.000 -0.000  0.400  0.917  0.000
       0.000 -0.000  0.917 -0.400  0.000
      -1.000 -0.000  0.000  0.000 -0.000
      -0.000  0.000 -0.000 -0.000  1.000
     occupation matrix ns (before diag.):
       0.946 -0.000 -0.000 -0.000  0.000
      -0.000  0.991 -0.000  0.000  0.000
      -0.000 -0.000  0.991  0.000  0.000
      -0.000  0.000  0.000  0.365 -0.000
       0.000  0.000  0.000 -0.000  0.993
     ------------------------ ATOM   24 ------------------------
     Tr[ns( 24)] (up, down, total) =   4.84532  4.28549  9.13081
     Atomic magnetic moment for atom  24 =   0.55983
     SPIN  1
     eigenvalues:
       0.908  0.955  0.993  0.993  0.995
     eigenvectors (columns):
      -0.000  1.000 -0.000 -0.000  0.000
      -0.000  0.000  0.305  0.952  0.000
      -0.000  0.000  0.952 -0.305  0.000
       1.000  0.000  0.000  0.000 -0.000
       0.000 -0.000 -0.000 -0.000  1.000
     occupation matrix ns (before diag.):
       0.955 -0.000 -0.000  0.000  0.000
      -0.000  0.993 -0.000  0.000  0.000
      -0.000 -0.000  0.993  0.000  0.000
       0.000  0.000  0.000  0.908 -0.000
       0.000  0.000  0.000 -0.000  0.995
     SPIN  2
     eigenvalues:
       0.365  0.946  0.991  0.991  0.993
     eigenvectors (columns):
      -0.000 -1.000 -0.000 -0.000  0.000
       0.000 -0.000  0.339  0.941  0.000
       0.000 -0.000  0.941 -0.339  0.000
      -1.000  0.000  0.000  0.000 -0.000
      -0.000  0.000 -0.000 -0.000  1.000
     occupation matrix ns (before diag.):
       0.946 -0.000 -0.000 -0.000  0.000
      -0.000  0.991 -0.000  0.000  0.000
      -0.000 -0.000  0.991  0.000  0.000
      -0.000  0.000  0.000  0.365 -0.000
       0.000  0.000  0.000 -0.000  0.993

     Number of occupied Hubbard levels =   73.0452

     negative rho (up, down):  4.279E-05 6.181E-03

     HUBBARD ENERGY =    0.3793  (Ry)

     total cpu time spent up to now is      103.4 secs

     total energy              =   -3086.60537379 Ry
     estimated scf accuracy    <     691.24322680 Ry

     total magnetization       =    -0.00 Bohr mag/cell
     absolute magnetization    =    29.80 Bohr mag/cell

     iteration #  4     ecut=    60.00 Ry     beta= 0.10
     Davidson diagonalization with overlap

---- Real-time Memory Report at c_bands before calling an iterative solver
          1412 MiB given to the printing process from OS
             0 MiB allocation reported by mallinfo(arena+hblkhd)
          5331 MiB available memory on the node where the printing process lives
------------------
     ethr =  4.07E-03,  avg # of iterations =  4.0

     =================== HUBBARD OCCUPATIONS ===================
     ------------------------ ATOM   14 ------------------------
     Tr[ns( 14)] (up, down, total) =   4.86593  4.37285  9.23878
     Atomic magnetic moment for atom  14 =   0.49307
     SPIN  1
     eigenvalues:
       0.916  0.964  0.995  0.995  0.997
     eigenvectors (columns):
      -0.000  1.000 -0.000 -0.000  0.000
      -0.000  0.000  0.362  0.932  0.000
      -0.000  0.000  0.932 -0.362  0.000
       1.000  0.000  0.000  0.000 -0.000
       0.000 -0.000 -0.000 -0.000  1.000
     occupation matrix ns (before diag.):
       0.964 -0.000 -0.000  0.000  0.000
      -0.000  0.995 -0.000  0.000  0.000
      -0.000 -0.000  0.995  0.000  0.000
       0.000  0.000  0.000  0.916 -0.000
       0.000  0.000  0.000 -0.000  0.997
     SPIN  2
     eigenvalues:
       0.434  0.958  0.993  0.993  0.995
     eigenvectors (columns):
      -0.000  1.000 -0.000 -0.000  0.000
      -0.000  0.000  0.306  0.952  0.000
      -0.000  0.000  0.952 -0.306  0.000
       1.000  0.000  0.000  0.000 -0.000
       0.000 -0.000 -0.000 -0.000  1.000
     occupation matrix ns (before diag.):
       0.958 -0.000 -0.000  0.000  0.000
      -0.000  0.993 -0.000  0.000  0.000
      -0.000 -0.000  0.993  0.000  0.000
       0.000  0.000  0.000  0.434 -0.000
       0.000  0.000  0.000 -0.000  0.995
     ------------------------ ATOM   15 ------------------------
     Tr[ns( 15)] (up, down, total) =   4.86593  4.37285  9.23878
     Atomic magnetic moment for atom  15 =   0.49307
     SPIN  1
     eigenvalues:
       0.916  0.964  0.995  0.995  0.997
     eigenvectors (columns):
      -0.000  1.000 -0.000 -0.000  0.000
      -0.000  0.000  0.301  0.954  0.000
      -0.000  0.000  0.954 -0.301  0.000
       1.000  0.000  0.000  0.000 -0.000
       0.000 -0.000 -0.000 -0.000  1.000
     occupation matrix ns (before diag.):
       0.964 -0.000 -0.000  0.000  0.000
      -0.000  0.995 -0.000  0.000  0.000
      -0.000 -0.000  0.995  0.000  0.000
       0.000  0.000  0.000  0.916 -0.000
       0.000  0.000  0.000 -0.000  0.997
     SPIN  2
     eigenvalues:
       0.434  0.958  0.993  0.993  0.995
     eigenvectors (columns):
       0.000  1.000 -0.000 -0.000  0.000
      -0.000  0.000  0.342  0.940  0.000
      -0.000  0.000  0.940 -0.342  0.000
       1.000 -0.000  0.000  0.000 -0.000
       0.000 -0.000 -0.000 -0.000  1.000
     occupation matrix ns (before diag.):
       0.958 -0.000 -0.000  0.000  0.000
      -0.000  0.993 -0.000  0.000  0.000
      -0.000 -0.000  0.993  0.000  0.000
       0.000  0.000  0.000  0.434 -0.000
       0.000  0.000  0.000 -0.000  0.995
     ------------------------ ATOM   17 ------------------------
     Tr[ns( 17)] (up, down, total) =   4.37353  4.86596  9.23948
     Atomic magnetic moment for atom  17 =  -0.49243
     SPIN  1
     eigenvalues:
       0.434  0.958  0.993  0.993  0.995
     eigenvectors (columns):
       0.000  1.000 -0.000 -0.000  0.000
      -0.000  0.000  1.000 -0.000  0.000
      -0.000  0.000  0.000  1.000  0.000
       1.000 -0.000  0.000  0.000 -0.000
       0.000 -0.000 -0.000 -0.000  1.000
     occupation matrix ns (before diag.):
       0.958 -0.000 -0.000 -0.000  0.000
      -0.000  0.993 -0.000  0.000  0.000
      -0.000 -0.000  0.993  0.000  0.000
      -0.000  0.000  0.000  0.434 -0.000
       0.000  0.000  0.000 -0.000  0.995
     SPIN  2
     eigenvalues:
       0.916  0.964  0.995  0.995  0.997
     eigenvectors (columns):
       0.000  1.000 -0.000 -0.000  0.000
      -0.000  0.000  0.000  1.000  0.000
      -0.000  0.000  1.000 -0.000  0.000
       1.000 -0.000  0.000  0.000 -0.000
       0.000 -0.000 -0.000 -0.000  1.000
     occupation matrix ns (before diag.):
       0.964 -0.000 -0.000 -0.000  0.000
      -0.000  0.995 -0.000  0.000  0.000
      -0.000 -0.000  0.995  0.000  0.000
      -0.000  0.000  0.000  0.916 -0.000
       0.000  0.000  0.000 -0.000  0.997
     ------------------------ ATOM   18 ------------------------
     Tr[ns( 18)] (up, down, total) =   4.37353  4.86596  9.23948
     Atomic magnetic moment for atom  18 =  -0.49243
     SPIN  1
     eigenvalues:
       0.434  0.958  0.993  0.993  0.995
     eigenvectors (columns):
       0.000  1.000 -0.000 -0.000  0.000
      -0.000  0.000  1.000 -0.000  0.000
      -0.000  0.000  0.000  1.000  0.000
       1.000 -0.000  0.000  0.000 -0.000
       0.000 -0.000 -0.000 -0.000  1.000
     occupation matrix ns (before diag.):
       0.958 -0.000 -0.000 -0.000  0.000
      -0.000  0.993 -0.000  0.000  0.000
      -0.000 -0.000  0.993  0.000  0.000
      -0.000  0.000  0.000  0.434 -0.000
       0.000  0.000  0.000 -0.000  0.995
     SPIN  2
     eigenvalues:
       0.916  0.964  0.995  0.995  0.997
     eigenvectors (columns):
       0.000  1.000 -0.000 -0.000  0.000
      -0.000  0.000  0.000  1.000  0.000
      -0.000  0.000  1.000 -0.000  0.000
       1.000 -0.000  0.000  0.000 -0.000
       0.000 -0.000 -0.000 -0.000  1.000
     occupation matrix ns (before diag.):
       0.964 -0.000 -0.000 -0.000  0.000
      -0.000  0.995 -0.000  0.000  0.000
      -0.000 -0.000  0.995  0.000  0.000
      -0.000  0.000  0.000  0.916 -0.000
       0.000  0.000  0.000 -0.000  0.997
     ------------------------ ATOM   20 ------------------------
     Tr[ns( 20)] (up, down, total) =   4.37353  4.86596  9.23948
     Atomic magnetic moment for atom  20 =  -0.49243
     SPIN  1
     eigenvalues:
       0.434  0.958  0.993  0.993  0.995
     eigenvectors (columns):
      -0.000  1.000 -0.000 -0.000  0.000
      -0.000  0.000  0.000  1.000  0.000
      -0.000  0.000  1.000 -0.000  0.000
       1.000  0.000  0.000  0.000 -0.000
       0.000 -0.000 -0.000 -0.000  1.000
     occupation matrix ns (before diag.):
       0.958 -0.000 -0.000  0.000  0.000
      -0.000  0.993 -0.000  0.000  0.000
      -0.000 -0.000  0.993  0.000  0.000
       0.000  0.000  0.000  0.434 -0.000
       0.000  0.000  0.000 -0.000  0.995
     SPIN  2
     eigenvalues:
       0.916  0.964  0.995  0.995  0.997
     eigenvectors (columns):
      -0.000  1.000 -0.000 -0.000  0.000
      -0.000  0.000  1.000 -0.000  0.000
      -0.000  0.000  0.000  1.000  0.000
       1.000  0.000  0.000  0.000 -0.000
       0.000 -0.000 -0.000 -0.000  1.000
     occupation matrix ns (before diag.):
       0.964 -0.000 -0.000  0.000  0.000
      -0.000  0.995 -0.000  0.000  0.000
      -0.000 -0.000  0.995  0.000  0.000
       0.000  0.000  0.000  0.916 -0.000
       0.000  0.000  0.000 -0.000  0.997
     ------------------------ ATOM   21 ------------------------
     Tr[ns( 21)] (up, down, total) =   4.37353  4.86596  9.23948
     Atomic magnetic moment for atom  21 =  -0.49243
     SPIN  1
     eigenvalues:
       0.434  0.958  0.993  0.993  0.995
     eigenvectors (columns):
      -0.000  1.000 -0.000 -0.000  0.000
      -0.000  0.000  0.000  1.000  0.000
      -0.000  0.000  1.000 -0.000  0.000
       1.000  0.000  0.000  0.000 -0.000
       0.000 -0.000 -0.000 -0.000  1.000
     occupation matrix ns (before diag.):
       0.958 -0.000 -0.000  0.000  0.000
      -0.000  0.993 -0.000  0.000  0.000
      -0.000 -0.000  0.993  0.000  0.000
       0.000  0.000  0.000  0.434 -0.000
       0.000  0.000  0.000 -0.000  0.995
     SPIN  2
     eigenvalues:
       0.916  0.964  0.995  0.995  0.997
     eigenvectors (columns):
      -0.000  1.000 -0.000 -0.000  0.000
      -0.000  0.000  1.000 -0.000  0.000
      -0.000  0.000  0.000  1.000  0.000
       1.000  0.000  0.000  0.000 -0.000
       0.000 -0.000 -0.000 -0.000  1.000
     occupation matrix ns (before diag.):
       0.964 -0.000 -0.000  0.000  0.000
      -0.000  0.995 -0.000  0.000  0.000
      -0.000 -0.000  0.995  0.000  0.000
       0.000  0.000  0.000  0.916 -0.000
       0.000  0.000  0.000 -0.000  0.997
     ------------------------ ATOM   23 ------------------------
     Tr[ns( 23)] (up, down, total) =   4.86603  4.37256  9.23859
     Atomic magnetic moment for atom  23 =   0.49346
     SPIN  1
     eigenvalues:
       0.916  0.964  0.995  0.995  0.997
     eigenvectors (columns):
      -0.000  1.000 -0.000 -0.000  0.000
      -0.000  0.000  0.366  0.931  0.000
      -0.000  0.000  0.931 -0.366  0.000
       1.000  0.000  0.000  0.000 -0.000
       0.000 -0.000 -0.000 -0.000  1.000
     occupation matrix ns (before diag.):
       0.964 -0.000 -0.000  0.000  0.000
      -0.000  0.995 -0.000  0.000  0.000
      -0.000 -0.000  0.995  0.000  0.000
       0.000  0.000  0.000  0.916 -0.000
       0.000  0.000  0.000 -0.000  0.997
     SPIN  2
     eigenvalues:
       0.434  0.958  0.993  0.993  0.995
     eigenvectors (columns):
      -0.000  1.000 -0.000 -0.000  0.000
      -0.000  0.000  0.352  0.936  0.000
      -0.000  0.000  0.936 -0.352  0.000
       1.000  0.000  0.000  0.000 -0.000
       0.000 -0.000 -0.000 -0.000  1.000
     occupation matrix ns (before diag.):
       0.958 -0.000 -0.000  0.000  0.000
      -0.000  0.993 -0.000  0.000  0.000
      -0.000 -0.000  0.993  0.000  0.000
       0.000  0.000  0.000  0.434 -0.000
       0.000  0.000  0.000 -0.000  0.995
[...]
      -1.000 -0.000  0.025 -0.000 -0.000
      -0.000  0.000  0.000  0.000  1.000
     occupation matrix ns (before diag.):
       0.959 -0.000 -0.000 -0.006  0.000
      -0.000  0.948 -0.000  0.000  0.000
      -0.000 -0.000  0.960  0.000  0.000
      -0.006  0.000  0.000  0.712 -0.000
       0.000  0.000  0.000 -0.000  0.975
     ------------------------ ATOM   18 ------------------------
     Tr[ns( 18)] (up, down, total) =   4.17617  4.55327  8.72944
     Atomic magnetic moment for atom  18 =  -0.37710
     SPIN  1
     eigenvalues:
       0.490  0.905  0.906  0.923  0.952
     eigenvectors (columns):
      -0.001 -0.000 -0.000  1.000 -0.000
       0.000 -0.000 -0.000  0.000  1.000
       0.000 -0.000 -1.000 -0.000 -0.000
      -1.000 -0.000 -0.000 -0.001  0.000
      -0.000  1.000 -0.000  0.000  0.000
     occupation matrix ns (before diag.):
       0.923 -0.000 -0.000 -0.000  0.000
      -0.000  0.952 -0.000  0.000  0.000
      -0.000 -0.000  0.906  0.000  0.000
      -0.000  0.000  0.000  0.490 -0.000
       0.000  0.000  0.000 -0.000  0.905
     SPIN  2
     eigenvalues:
       0.712  0.948  0.959  0.960  0.975
     eigenvectors (columns):
      -0.025 -0.000 -1.000  0.000  0.000
       0.000 -1.000  0.000  0.000  0.000
       0.000 -0.000 -0.000 -1.000  0.000
      -1.000 -0.000  0.025 -0.000 -0.000
      -0.000  0.000  0.000  0.000  1.000
     occupation matrix ns (before diag.):
       0.959 -0.000 -0.000 -0.006  0.000
      -0.000  0.948 -0.000  0.000  0.000
      -0.000 -0.000  0.960  0.000  0.000
      -0.006  0.000  0.000  0.712 -0.000
       0.000  0.000  0.000 -0.000  0.975
     ------------------------ ATOM   20 ------------------------
     Tr[ns( 20)] (up, down, total) =   4.17617  4.55327  8.72944
     Atomic magnetic moment for atom  20 =  -0.37710
     SPIN  1
     eigenvalues:
       0.490  0.905  0.906  0.923  0.952
     eigenvectors (columns):
       0.001 -0.000  0.000  1.000 -0.000
       0.000 -0.000  1.000 -0.000 -0.000
       0.000 -0.000  0.000  0.000  1.000
      -1.000 -0.000  0.000  0.001  0.000
      -0.000  1.000  0.000  0.000  0.000
     occupation matrix ns (before diag.):
       0.923 -0.000 -0.000  0.000  0.000
      -0.000  0.906 -0.000  0.000  0.000
      -0.000 -0.000  0.952  0.000  0.000
       0.000  0.000  0.000  0.490 -0.000
       0.000  0.000  0.000 -0.000  0.905
     SPIN  2
     eigenvalues:
       0.712  0.948  0.959  0.960  0.975
     eigenvectors (columns):
      -0.025  0.000  1.000  0.000  0.000
      -0.000  0.000  0.000 -1.000  0.000
      -0.000  1.000 -0.000  0.000  0.000
       1.000  0.000  0.025  0.000 -0.000
       0.000 -0.000 -0.000  0.000  1.000
     occupation matrix ns (before diag.):
       0.959 -0.000 -0.000  0.006  0.000
      -0.000  0.960 -0.000  0.000  0.000
      -0.000 -0.000  0.948  0.000  0.000
       0.006  0.000  0.000  0.712 -0.000
       0.000  0.000  0.000 -0.000  0.975
     ------------------------ ATOM   21 ------------------------
     Tr[ns( 21)] (up, down, total) =   4.17617  4.55327  8.72944
     Atomic magnetic moment for atom  21 =  -0.37710
     SPIN  1
     eigenvalues:
       0.490  0.905  0.906  0.923  0.952
     eigenvectors (columns):
       0.001 -0.000  0.000  1.000 -0.000
       0.000 -0.000  1.000 -0.000 -0.000
       0.000 -0.000  0.000  0.000  1.000
      -1.000 -0.000  0.000  0.001  0.000
      -0.000  1.000  0.000  0.000  0.000
     occupation matrix ns (before diag.):
       0.923 -0.000 -0.000  0.000  0.000
      -0.000  0.906 -0.000  0.000  0.000
      -0.000 -0.000  0.952  0.000  0.000
       0.000  0.000  0.000  0.490 -0.000
       0.000  0.000  0.000 -0.000  0.905
     SPIN  2
     eigenvalues:
       0.712  0.948  0.959  0.960  0.975
     eigenvectors (columns):
      -0.025  0.000  1.000  0.000  0.000
      -0.000  0.000  0.000 -1.000  0.000
      -0.000  1.000 -0.000  0.000  0.000
       1.000  0.000  0.025  0.000 -0.000
       0.000 -0.000 -0.000  0.000  1.000
     occupation matrix ns (before diag.):
       0.959 -0.000 -0.000  0.006  0.000
      -0.000  0.960 -0.000  0.000  0.000
      -0.000 -0.000  0.948  0.000  0.000
       0.006  0.000  0.000  0.712 -0.000
       0.000  0.000  0.000 -0.000  0.975
     ------------------------ ATOM   23 ------------------------
     Tr[ns( 23)] (up, down, total) =   4.64761  4.07918  8.72678
     Atomic magnetic moment for atom  23 =   0.56843
     SPIN  1
     eigenvalues:
       0.739  0.961  0.975  0.975  0.998
     eigenvectors (columns):
      -0.000  1.000 -0.000 -0.000  0.000
      -0.000  0.000  0.367  0.930  0.000
      -0.000  0.000  0.930 -0.367  0.000
       1.000  0.000  0.000  0.000 -0.000
       0.000 -0.000 -0.000 -0.000  1.000
     occupation matrix ns (before diag.):
       0.961 -0.000 -0.000  0.000  0.000
      -0.000  0.975 -0.000  0.000  0.000
      -0.000 -0.000  0.975  0.000  0.000
       0.000  0.000  0.000  0.739 -0.000
       0.000  0.000  0.000 -0.000  0.998
     SPIN  2
     eigenvalues:
       0.466  0.881  0.906  0.906  0.919
     eigenvectors (columns):
      -0.000 -0.000  0.000 -0.000  1.000
      -0.000 -0.000  0.366 -0.931 -0.000
      -0.000 -0.000  0.931  0.366 -0.000
       1.000 -0.000  0.000 -0.000  0.000
       0.000  1.000  0.000 -0.000  0.000
     occupation matrix ns (before diag.):
       0.919 -0.000 -0.000  0.000  0.000
      -0.000  0.906 -0.000  0.000  0.000
      -0.000 -0.000  0.906  0.000  0.000
       0.000  0.000  0.000  0.466 -0.000
       0.000  0.000  0.000 -0.000  0.881
     ------------------------ ATOM   24 ------------------------
     Tr[ns( 24)] (up, down, total) =   4.64761  4.07918  8.72678
     Atomic magnetic moment for atom  24 =   0.56843
     SPIN  1
     eigenvalues:
       0.739  0.961  0.975  0.975  0.998
     eigenvectors (columns):
       0.000  1.000 -0.000 -0.000  0.000
      -0.000  0.000  0.298  0.955  0.000
      -0.000  0.000  0.955 -0.298  0.000
       1.000 -0.000  0.000  0.000 -0.000
       0.000 -0.000 -0.000 -0.000  1.000
     occupation matrix ns (before diag.):
       0.961 -0.000 -0.000  0.000  0.000
      -0.000  0.975 -0.000  0.000  0.000
      -0.000 -0.000  0.975  0.000  0.000
       0.000  0.000  0.000  0.739 -0.000
       0.000  0.000  0.000 -0.000  0.998
     SPIN  2
     eigenvalues:
       0.466  0.881  0.906  0.906  0.919
     eigenvectors (columns):
       0.000 -0.000  0.000 -0.000  1.000
      -0.000 -0.000  0.366 -0.931 -0.000
      -0.000 -0.000  0.931  0.366 -0.000
       1.000 -0.000  0.000 -0.000 -0.000
       0.000  1.000  0.000 -0.000  0.000
     occupation matrix ns (before diag.):
       0.919 -0.000 -0.000  0.000  0.000
      -0.000  0.906 -0.000  0.000  0.000
      -0.000 -0.000  0.906  0.000  0.000
       0.000  0.000  0.000  0.466 -0.000
       0.000  0.000  0.000 -0.000  0.881

     Number of occupied Hubbard levels =   69.8551

     negative rho (up, down):  3.302E+00 2.085E+00

     HUBBARD ENERGY =    0.3677  (Ry)

     total cpu time spent up to now is      761.1 secs

     total energy              =   -2072.37730366 Ry
     estimated scf accuracy    <  946891.12475122 Ry

     total magnetization       =    -2.30 Bohr mag/cell
     absolute magnetization    =  1047.20 Bohr mag/cell

     iteration # 23     ecut=    60.00 Ry     beta= 0.10
     Davidson diagonalization with overlap

---- Real-time Memory Report at c_bands before calling an iterative solver
          1462 MiB given to the printing process from OS
             0 MiB allocation reported by mallinfo(arena+hblkhd)
          5193 MiB available memory on the node where the printing process lives
------------------
     ethr =  4.07E-03,  avg # of iterations =  9.0

     =================== HUBBARD OCCUPATIONS ===================
     ------------------------ ATOM   14 ------------------------
     Tr[ns( 14)] (up, down, total) =   4.82583  4.41909  9.24493
     Atomic magnetic moment for atom  14 =   0.40674
     SPIN  1
     eigenvalues:
       0.875  0.965  0.995  0.995  0.997
     eigenvectors (columns):
      -0.000  1.000 -0.000 -0.000  0.000
      -0.000  0.000  0.322  0.947  0.000
      -0.000  0.000  0.947 -0.322  0.000
       1.000  0.000  0.000  0.000 -0.000
       0.000 -0.000 -0.000 -0.000  1.000
     occupation matrix ns (before diag.):
       0.965 -0.000 -0.000  0.000  0.000
      -0.000  0.995 -0.000  0.000  0.000
      -0.000 -0.000  0.995  0.000  0.000
       0.000  0.000  0.000  0.875 -0.000
       0.000  0.000  0.000 -0.000  0.997
     SPIN  2
     eigenvalues:
       0.496  0.942  0.992  0.992  0.997
     eigenvectors (columns):
      -0.000  1.000 -0.000 -0.000  0.000
      -0.000  0.000  0.333  0.943  0.000
      -0.000  0.000  0.943 -0.333  0.000
       1.000  0.000  0.000  0.000 -0.000
       0.000 -0.000 -0.000 -0.000  1.000
     occupation matrix ns (before diag.):
       0.942 -0.000 -0.000  0.000  0.000
      -0.000  0.992 -0.000  0.000  0.000
      -0.000 -0.000  0.992  0.000  0.000
       0.000  0.000  0.000  0.496 -0.000
       0.000  0.000  0.000 -0.000  0.997
     ------------------------ ATOM   15 ------------------------
     Tr[ns( 15)] (up, down, total) =   4.82583  4.41909  9.24493
     Atomic magnetic moment for atom  15 =   0.40674
     SPIN  1
     eigenvalues:
       0.875  0.965  0.995  0.995  0.997
     eigenvectors (columns):
      -0.000  1.000 -0.000 -0.000  0.000
      -0.000  0.000  0.299  0.954  0.000
      -0.000  0.000  0.954 -0.299  0.000
       1.000  0.000  0.000  0.000 -0.000
       0.000 -0.000 -0.000 -0.000  1.000
     occupation matrix ns (before diag.):
       0.965 -0.000 -0.000  0.000  0.000
      -0.000  0.995 -0.000  0.000  0.000
      -0.000 -0.000  0.995  0.000  0.000
       0.000  0.000  0.000  0.875 -0.000
       0.000  0.000  0.000 -0.000  0.997
     SPIN  2
     eigenvalues:
       0.496  0.942  0.992  0.992  0.997
     eigenvectors (columns):
      -0.000  1.000 -0.000 -0.000  0.000
      -0.000  0.000  0.321  0.947  0.000
      -0.000  0.000  0.947 -0.321  0.000
       1.000  0.000  0.000  0.000 -0.000
       0.000 -0.000 -0.000 -0.000  1.000
     occupation matrix ns (before diag.):
       0.942 -0.000 -0.000  0.000  0.000
      -0.000  0.992 -0.000  0.000  0.000
      -0.000 -0.000  0.992  0.000  0.000
       0.000  0.000  0.000  0.496 -0.000
       0.000  0.000  0.000 -0.000  0.997
     ------------------------ ATOM   17 ------------------------
     Tr[ns( 17)] (up, down, total) =   4.41407  4.82557  9.23964
     Atomic magnetic moment for atom  17 =  -0.41150
     SPIN  1
     eigenvalues:
       0.493  0.940  0.992  0.992  0.996
     eigenvectors (columns):
       0.001  1.000 -0.000 -0.000  0.000
      -0.000  0.000  1.000 -0.000  0.000
      -0.000  0.000  0.000  1.000  0.000
       1.000 -0.001  0.000  0.000 -0.000
       0.000 -0.000 -0.000 -0.000  1.000
     occupation matrix ns (before diag.):
       0.940 -0.000 -0.000 -0.000  0.000
      -0.000  0.992 -0.000  0.000  0.000
      -0.000 -0.000  0.992  0.000  0.000
      -0.000  0.000  0.000  0.493 -0.000
       0.000  0.000  0.000 -0.000  0.996
     SPIN  2
     eigenvalues:
       0.874  0.964  0.995  0.995  0.997
     eigenvectors (columns):
      -0.005  1.000 -0.000 -0.000  0.000
      -0.000  0.000  1.000 -0.000  0.000
      -0.000  0.000  0.000  1.000  0.000
       1.000  0.005  0.000  0.000 -0.000
       0.000 -0.000 -0.000 -0.000  1.000
     occupation matrix ns (before diag.):
       0.964 -0.000 -0.000  0.000  0.000
      -0.000  0.995 -0.000  0.000  0.000
      -0.000 -0.000  0.995  0.000  0.000
       0.000  0.000  0.000  0.874 -0.000
       0.000  0.000  0.000 -0.000  0.997
     ------------------------ ATOM   18 ------------------------
     Tr[ns( 18)] (up, down, total) =   4.41407  4.82557  9.23964
     Atomic magnetic moment for atom  18 =  -0.41150
     SPIN  1
     eigenvalues:
       0.493  0.940  0.992  0.992  0.996
     eigenvectors (columns):
       0.001  1.000 -0.000 -0.000  0.000
      -0.000  0.000  1.000 -0.000  0.000
      -0.000  0.000  0.000  1.000  0.000
       1.000 -0.001  0.000  0.000 -0.000
       0.000 -0.000 -0.000 -0.000  1.000
     occupation matrix ns (before diag.):
       0.940 -0.000 -0.000 -0.000  0.000
      -0.000  0.992 -0.000  0.000  0.000
      -0.000 -0.000  0.992  0.000  0.000
      -0.000  0.000  0.000  0.493 -0.000
       0.000  0.000  0.000 -0.000  0.996
     SPIN  2
     eigenvalues:
       0.874  0.964  0.995  0.995  0.997
     eigenvectors (columns):
      -0.005  1.000 -0.000 -0.000  0.000
      -0.000  0.000  1.000 -0.000  0.000
      -0.000  0.000  0.000  1.000  0.000
       1.000  0.005  0.000  0.000 -0.000
       0.000 -0.000 -0.000 -0.000  1.000
     occupation matrix ns (before diag.):
       0.964 -0.000 -0.000  0.000  0.000
      -0.000  0.995 -0.000  0.000  0.000
      -0.000 -0.000  0.995  0.000  0.000
       0.000  0.000  0.000  0.874 -0.000
       0.000  0.000  0.000 -0.000  0.997
     ------------------------ ATOM   20 ------------------------
     Tr[ns( 20)] (up, down, total) =   4.41407  4.82557  9.23964
     Atomic magnetic moment for atom  20 =  -0.41150
     SPIN  1
     eigenvalues:
       0.493  0.940  0.992  0.992  0.996
     eigenvectors (columns):
      -0.001  1.000 -0.000 -0.000  0.000
      -0.000  0.000  0.000  1.000  0.000
      -0.000  0.000  1.000 -0.000  0.000
       1.000  0.001  0.000  0.000 -0.000
       0.000 -0.000 -0.000 -0.000  1.000
     occupation matrix ns (before diag.):
       0.940 -0.000 -0.000  0.000  0.000
      -0.000  0.992 -0.000  0.000  0.000
      -0.000 -0.000  0.992  0.000  0.000
       0.000  0.000  0.000  0.493 -0.000
       0.000  0.000  0.000 -0.000  0.996
     SPIN  2
     eigenvalues:
       0.874  0.964  0.995  0.995  0.997
     eigenvectors (columns):
       0.005  1.000 -0.000 -0.000  0.000
      -0.000  0.000  0.000  1.000  0.000
      -0.000  0.000  1.000 -0.000  0.000
       1.000 -0.005  0.000  0.000 -0.000
       0.000 -0.000 -0.000 -0.000  1.000
     occupation matrix ns (before diag.):
       0.964 -0.000 -0.000 -0.000  0.000
      -0.000  0.995 -0.000  0.000  0.000
      -0.000 -0.000  0.995  0.000  0.000
      -0.000  0.000  0.000  0.874 -0.000
       0.000  0.000  0.000 -0.000  0.997
     ------------------------ ATOM   21 ------------------------
     Tr[ns( 21)] (up, down, total) =   4.41407  4.82557  9.23964
     Atomic magnetic moment for atom  21 =  -0.41150
     SPIN  1
     eigenvalues:
       0.493  0.940  0.992  0.992  0.996
     eigenvectors (columns):
      -0.001  1.000 -0.000 -0.000  0.000
      -0.000  0.000  0.000  1.000  0.000
      -0.000  0.000  1.000 -0.000  0.000
       1.000  0.001  0.000  0.000 -0.000
       0.000 -0.000 -0.000 -0.000  1.000
     occupation matrix ns (before diag.):
       0.940 -0.000 -0.000  0.000  0.000
      -0.000  0.992 -0.000  0.000  0.000
      -0.000 -0.000  0.992  0.000  0.000
       0.000  0.000  0.000  0.493 -0.000
       0.000  0.000  0.000 -0.000  0.996
     SPIN  2
     eigenvalues:
       0.874  0.964  0.995  0.995  0.997
     eigenvectors (columns):
       0.005  1.000 -0.000 -0.000  0.000
      -0.000  0.000  0.000  1.000  0.000
      -0.000  0.000  1.000 -0.000  0.000
       1.000 -0.005  0.000  0.000 -0.000
       0.000 -0.000 -0.000 -0.000  1.000
     occupation matrix ns (before diag.):
       0.964 -0.000 -0.000 -0.000  0.000
      -0.000  0.995 -0.000  0.000  0.000
      -0.000 -0.000  0.995  0.000  0.000
      -0.000  0.000  0.000  0.874 -0.000
       0.000  0.000  0.000 -0.000  0.997
     ------------------------ ATOM   23 ------------------------
     Tr[ns( 23)] (up, down, total) =   4.82374  4.40899  9.23272
     Atomic magnetic moment for atom  23 =   0.41475
     SPIN  1
     eigenvalues:
       0.873  0.964  0.995  0.995  0.997
     eigenvectors (columns):
      -0.000  1.000 -0.000 -0.000  0.000
      -0.000  0.000  0.330  0.944  0.000
      -0.000  0.000  0.944 -0.330  0.000
       1.000  0.000  0.000  0.000 -0.000
       0.000 -0.000 -0.000 -0.000  1.000
     occupation matrix ns (before diag.):
       0.964 -0.000 -0.000  0.000  0.000
      -0.000  0.995 -0.000  0.000  0.000
      -0.000 -0.000  0.995  0.000  0.000
       0.000  0.000  0.000  0.873 -0.000
       0.000  0.000  0.000 -0.000  0.997
     SPIN  2
     eigenvalues:
       0.490  0.940  0.991  0.991  0.997
     eigenvectors (columns):
      -0.000  1.000 -0.000 -0.000  0.000
      -0.000  0.000  0.356  0.934  0.000
      -0.000  0.000  0.934 -0.356  0.000
       1.000 -0.000  0.000  0.000 -0.000
       0.000 -0.000 -0.000 -0.000  1.000
     occupation matrix ns (before diag.):
       0.940 -0.000 -0.000  0.000  0.000
      -0.000  0.991 -0.000  0.000  0.000
      -0.000 -0.000  0.991  0.000  0.000
       0.000  0.000  0.000  0.490 -0.000
       0.000  0.000  0.000 -0.000  0.997
     ------------------------ ATOM   24 ------------------------
     Tr[ns( 24)] (up, down, total) =   4.82374  4.40899  9.23272
     Atomic magnetic moment for atom  24 =   0.41475
     SPIN  1
     eigenvalues:
       0.873  0.964  0.995  0.995  0.997
     eigenvectors (columns):
      -0.000  1.000 -0.000 -0.000  0.000
      -0.000  0.000  0.352  0.936  0.000
      -0.000  0.000  0.936 -0.352  0.000
       1.000  0.000  0.000  0.000 -0.000
       0.000 -0.000 -0.000 -0.000  1.000
     occupation matrix ns (before diag.):
       0.964 -0.000 -0.000  0.000  0.000
      -0.000  0.995 -0.000  0.000  0.000
      -0.000 -0.000  0.995  0.000  0.000
       0.000  0.000  0.000  0.873 -0.000
       0.000  0.000  0.000 -0.000  0.997
     SPIN  2
     eigenvalues:
       0.490  0.940  0.991  0.991  0.997
     eigenvectors (columns):
      -0.000  1.000 -0.000 -0.000  0.000
      -0.000  0.000  0.314  0.949  0.000
      -0.000  0.000  0.949 -0.314  0.000
       1.000 -0.000  0.000  0.000 -0.000
       0.000 -0.000 -0.000 -0.000  1.000
     occupation matrix ns (before diag.):
       0.940 -0.000 -0.000  0.000  0.000
      -0.000  0.991 -0.000  0.000  0.000
      -0.000 -0.000  0.991  0.000  0.000
       0.000  0.000  0.000  0.490 -0.000
       0.000  0.000  0.000 -0.000  0.997

     Number of occupied Hubbard levels =   73.9139

     negative rho (up, down):  2.418E+00 2.838E+00

     HUBBARD ENERGY =    0.3630  (Ry)

     total cpu time spent up to now is      807.0 secs

     total energy              =   -3851.87617816 Ry
     estimated scf accuracy    <  415794.55199814 Ry

     total magnetization       =    -0.37 Bohr mag/cell
     absolute magnetization    =  2908.86 Bohr mag/cell

     iteration # 24     ecut=    60.00 Ry     beta= 0.10
     Davidson diagonalization with overlap

---- Real-time Memory Report at c_bands before calling an iterative solver
          1462 MiB given to the printing process from OS
             0 MiB allocation reported by mallinfo(arena+hblkhd)
          5188 MiB available memory on the node where the printing process lives
------------------
forrtl: error (78): process killed (SIGTERM)
Image              PC                Routine            Line        Source             
libc.so.6          00007FA990933520  Unknown               Unknown  Unknown
libmkl_avx2.so.2   00007FA9004000E7  mkl_blas_avx2_zge     Unknown  Unknown
forrtl: error (78): process killed (SIGTERM)
Image              PC                Routine            Line        Source             
libc.so.6          00007F9C9EA1A520  Unknown               Unknown  Unknown
libmkl_avx2.so.2   00007F9C0E4001BB  mkl_blas_avx2_zge     Unknown  Unknown
forrtl: error (78): process killed (SIGTERM)
Image              PC                Routine            Line        Source             
libc.so.6          00007FF432733520  Unknown               Unknown  Unknown
libmkl_avx2.so.2   00007FF3A2200091  mkl_blas_avx2_zge     Unknown  Unknown
forrtl: error (78): process killed (SIGTERM)
Image              PC                Routine            Line        Source             
libc.so.6          00007F7709133520  Unknown               Unknown  Unknown
libmkl_avx2.so.2   00007F7678C0013C  mkl_blas_avx2_zge     Unknown  Unknown
