
     Program BANDS v.7.2 starts on 31Dec2023 at 21:32:59 

     This program is part of the open-source Quantum ESPRESSO suite
     for quantum simulation of materials; please cite
         "P. Giannozzi et al., J. Phys.:Condens. Matter 21 395502 (2009);
         "P. Giannozzi et al., J. Phys.:Condens. Matter 29 465901 (2017);
         "P. Giannozzi et al., J. Chem. Phys. 152 154105 (2020);
          URL http://www.quantum-espresso.org", 
     in publications or presentations arising from this work. More details at
     http://www.quantum-espresso.org/quote

     Parallel version (MPI), running on     4 processors

     MPI processes distributed on     1 nodes
     R & G space division:  proc/nbgrp/npool/nimage =       4
     4860 MiB available memory on the printing compute node when the environment starts
 

     Reading xml data from directory:

     ./YBCO6/YBCO6.save/
     file Y.pz-spn-rrkjus_psl.1.0.0.UPF: wavefunction(s)  4S renormalized
     file Ba.pz-spn-rrkjus_psl.1.0.0.UPF: wavefunction(s)  5S 6S renormalized
     file Cu.pz-dn-rrkjus_psl.1.0.0.UPF: wavefunction(s)  3D renormalized

     IMPORTANT: XC functional enforced from input :
     Exchange-correlation= PZ
                           (   1   1   0   0   0   0   0)
     Any further DFT definition will be discarded
     Please, verify this is what you really want

 
     Parallelization info
     --------------------
     sticks:   dense  smooth     PW     G-vecs:    dense   smooth      PW
     Min         554     243     73                59678    17683    2789
     Max         555     244     74                59689    17698    2796
     Sum        2217     973    293               238729    70751   11167
 
     Using Slab Decomposition
 
     Reading collected, re-writing distributed wavefunctions
     high-symmetry point:  0.0000 0.0000 0.0000   x coordinate   0.0000
     high-symmetry point:  0.0000 0.5000 0.0000   x coordinate   0.5000
     high-symmetry point:  0.5000 0.5000 0.0000   x coordinate   1.0000
     high-symmetry point:  0.5000 0.0000 0.0000   x coordinate   1.5000
     high-symmetry point:  0.0000 0.0000 0.0000   x coordinate   2.0000
     high-symmetry point:  0.5000 0.5000 0.0000   x coordinate   2.7071

     Plottable bands (eV) written to file YBCO6.band.gnu
     Bands written to file YBCO6.band

 **************************************************************************

                    xk=(   0.00000,   0.00000,   0.00000  )

     point group D_2h (mmm) 
     there are  8 classes
     the character table:

       E     C2    C2'   C2''  i     s_v   s_v'  s_v''
A_g    1.00  1.00  1.00  1.00  1.00  1.00  1.00  1.00
B_1g   1.00  1.00 -1.00 -1.00  1.00  1.00 -1.00 -1.00
B_2g   1.00 -1.00  1.00 -1.00  1.00 -1.00  1.00 -1.00
B_3g   1.00 -1.00 -1.00  1.00  1.00 -1.00 -1.00  1.00
A_u    1.00  1.00  1.00  1.00 -1.00 -1.00 -1.00 -1.00
B_1u   1.00  1.00 -1.00 -1.00 -1.00 -1.00  1.00  1.00
B_2u   1.00 -1.00  1.00 -1.00 -1.00  1.00 -1.00  1.00
B_3u   1.00 -1.00 -1.00  1.00 -1.00  1.00  1.00 -1.00

     the symmetry operations in each class and the name of the first element:

     E        1
                                                                 
     C2       2
                                                                 
     C2'      4
                                                                 
     C2''     3
                                                                 
     i        5
                                                                 
     s_v      6
                                                                 
     s_v'     8
                                                                 
     s_v''    7
                                                                 

     Band symmetry, D_2h (mmm)  point group:

     e(  1 -  1) =    -30.96288  eV     1   --> A_g            
     e(  2 -  2) =    -16.05034  eV     1   --> A_g            
     e(  3 -  3) =    -16.04467  eV     1   --> B_1u           
     e(  4 -  4) =    -11.78197  eV     1   --> B_1u           
     e(  5 -  6) =    -11.04754  eV     2   --> B_2u           
     e(  5 -  6) =    -11.04754  eV     2   --> B_3u           
     e(  7 -  7) =     -8.70253  eV     1   --> A_g            
     e(  8 -  8) =     -7.50197  eV     1   --> B_1u           
     e(  9 -  9) =     -7.38898  eV     1   --> A_g            
     e( 10 - 10) =     -7.08340  eV     1   --> B_1u           
     e( 11 - 11) =     -6.66313  eV     1   --> A_g            
     e( 12 - 12) =     -6.30880  eV     1   --> B_1u           
     e( 13 - 13) =     -1.38588  eV     1   --> A_g            
     e( 14 - 14) =     -1.16333  eV     1   --> B_1u           
     e( 15 - 16) =     -0.85740  eV     2   --> B_2u           
     e( 15 - 16) =     -0.85740  eV     2   --> B_3u           
     e( 17 - 18) =     -0.85512  eV     2   --> B_2g           
     e( 17 - 18) =     -0.85512  eV     2   --> B_3g           
     e( 19 - 19) =      4.50655  eV     1   --> B_3g           
     e( 20 - 20) =      4.50665  eV     1   --> B_2g           
     e( 21 - 21) =      4.74140  eV     1   --> A_g            
     e( 22 - 22) =      4.92545  eV     1   --> B_3u           
     e( 23 - 23) =      4.92576  eV     1   --> B_2u           
     e( 24 - 24) =      5.11494  eV     1   --> A_g            
     e( 25 - 25) =      5.84953  eV     1   --> A_g            
     e( 26 - 26) =      6.49192  eV     1   --> B_1u           
     e( 27 - 28) =      7.03587  eV     2   --> B_2g           
     e( 27 - 28) =      7.03587  eV     2   --> B_3g           
     e( 29 - 29) =      7.04233  eV     1   --> B_1g           
     e( 30 - 30) =      7.10849  eV     1   --> A_u            
     e( 31 - 31) =      7.11917  eV     1   --> B_1u           
     e( 32 - 32) =      7.32076  eV     1   --> B_2g           
     e( 33 - 33) =      7.32119  eV     1   --> B_3g           
     e( 34 - 34) =      7.35222  eV     1   --> B_1u           
     e( 35 - 35) =      7.36678  eV     1   --> B_3u           
     e( 36 - 36) =      7.36698  eV     1   --> B_2u           
     e( 37 - 37) =      7.86509  eV     1   --> B_3g           
     e( 38 - 38) =      7.86615  eV     1   --> B_2g           
     e( 39 - 39) =      7.87046  eV     1   --> A_g            
     e( 40 - 40) =      7.98415  eV     1   --> A_g            
     e( 41 - 41) =      8.01678  eV     1   --> B_2u           
     e( 42 - 42) =      8.01698  eV     1   --> B_3u           
     e( 43 - 43) =      8.25767  eV     1   --> A_g            
     e( 44 - 44) =      8.31531  eV     1   --> A_g            
     e( 45 - 45) =      8.49158  eV     1   --> B_1u           
     e( 46 - 46) =      8.57856  eV     1   --> B_1g           
     e( 47 - 47) =      8.58404  eV     1   --> B_2u           
     e( 48 - 48) =      8.58425  eV     1   --> B_3u           
     e( 49 - 49) =      8.70991  eV     1   --> B_1u           
     e( 50 - 51) =     10.17394  eV     2   --> B_2g           
     e( 50 - 51) =     10.17394  eV     2   --> B_3g           
     e( 52 - 52) =     12.29516  eV     1   --> A_g            
     e( 53 - 53) =     13.15205  eV     1   --> A_g            
     e( 54 - 54) =     13.30126  eV     1   --> A_g            
     e( 55 - 55) =     13.46963  eV     1   --> B_1u           
     e( 56 - 56) =     14.40992  eV     1   --> A_g            
     e( 57 - 57) =     15.00935  eV     1   --> B_1g           
     e( 58 - 58) =     15.10456  eV     1   --> B_1u           
     e( 59 - 59) =     16.04107  eV     1   --> A_g            
     e( 60 - 60) =     16.05099  eV     1   --> B_2u           
     e( 61 - 61) =     16.05111  eV     1   --> B_3u           
     e( 62 - 62) =     16.16202  eV     1   --> B_1u           
     e( 63 - 63) =     16.99168  eV     1   --> B_2g           
     e( 64 - 64) =     16.99208  eV     1   --> B_3g           
     e( 65 - 65) =     17.36834  eV     1   --> A_g            
     e( 66 - 66) =     17.69917  eV     1   --> B_1u           
     e( 67 - 67) =     17.90358  eV     1   --> B_1g           
     e( 68 - 68) =     17.91048  eV     1   --> A_u            
     e( 69 - 69) =     18.62344  eV     1   --> B_2g           
     e( 70 - 70) =     18.62437  eV     1   --> B_3g           
     e( 71 - 71) =     19.28535  eV     1   --> A_g            
     e( 72 - 72) =     20.26341  eV     1   --> A_g            
     e( 73 - 73) =     20.42358  eV     1   --> A_g            
     e( 74 - 74) =     20.44269  eV     1   --> B_2u           
     e( 75 - 75) =     20.44291  eV     1   --> B_3u           
     e( 76 - 76) =     21.84001  eV     1   --> B_1u           
     e( 77 - 77) =     22.32065  eV     1   --> B_2u           
     e( 78 - 78) =     22.32174  eV     1   --> B_3u           
     e( 79 - 79) =     22.49154  eV     1   --> B_1u           
     e( 80 - 80) =     22.67516  eV     1   --> A_g            

 **************************************************************************

 **************************************************************************

                    xk=(   0.00000,   0.02500,   0.00000  )

     point group C_2v (mm2) 
     there are  4 classes
     the character table:

       E     C2    s_v   s_v' 
A_1    1.00  1.00  1.00  1.00
A_2    1.00  1.00 -1.00 -1.00
B_1    1.00 -1.00  1.00 -1.00
B_2    1.00 -1.00 -1.00  1.00

     the symmetry operations in each class and the name of the first element:

     E        1
                                                                 
     C2       2
                                                                 
     s_v      3
                                                                 
     s_v'     4
                                                                 

     Band symmetry, C_2v (mm2)  point group:

     e(  1 -  1) =    -30.96276  eV     1   --> A_1  D_1  S_1  
     e(  2 -  2) =    -16.04948  eV     1   --> A_1  D_1  S_1  
     e(  3 -  3) =    -16.04381  eV     1   --> B_2  D_4  S_4  
     e(  4 -  4) =    -11.78022  eV     1   --> B_2  D_4  S_4  
     e(  5 -  5) =    -11.05362  eV     1   --> A_1  D_1  S_1  
     e(  6 -  6) =    -11.04738  eV     1   --> B_1  D_3  S_3  
     e(  7 -  7) =     -8.69639  eV     1   --> A_1  D_1  S_1  
     e(  8 -  8) =     -7.50257  eV     1   --> B_2  D_4  S_4  
     e(  9 -  9) =     -7.38714  eV     1   --> A_1  D_1  S_1  
     e( 10 - 10) =     -7.08530  eV     1   --> B_2  D_4  S_4  
     e( 11 - 11) =     -6.66528  eV     1   --> A_1  D_1  S_1  
     e( 12 - 12) =     -6.31120  eV     1   --> B_2  D_4  S_4  
     e( 13 - 13) =     -1.38624  eV     1   --> A_1  D_1  S_1  
     e( 14 - 14) =     -1.16449  eV     1   --> B_2  D_4  S_4  
     e( 15 - 15) =     -0.85835  eV     1   --> A_1  D_1  S_1  
     e( 16 - 16) =     -0.85596  eV     1   --> B_1  D_3  S_3  
     e( 17 - 17) =     -0.85493  eV     1   --> B_2  D_4  S_4  
     e( 18 - 18) =     -0.85366  eV     1   --> A_2  D_2  S_2  
     e( 19 - 19) =      4.50380  eV     1   --> B_2  D_4  S_4  
     e( 20 - 20) =      4.50851  eV     1   --> A_2  D_2  S_2  
     e( 21 - 21) =      4.73610  eV     1   --> A_1  D_1  S_1  
     e( 22 - 22) =      4.92014  eV     1   --> A_1  D_1  S_1  
     e( 23 - 23) =      4.92617  eV     1   --> B_1  D_3  S_3  
     e( 24 - 24) =      5.11686  eV     1   --> A_1  D_1  S_1  
     e( 25 - 25) =      5.84887  eV     1   --> A_1  D_1  S_1  
     e( 26 - 26) =      6.48764  eV     1   --> B_2  D_4  S_4  
     e( 27 - 27) =      7.02109  eV     1   --> A_2  D_2  S_2  
     e( 28 - 28) =      7.02323  eV     1   --> B_1  D_3  S_3  
     e( 29 - 29) =      7.03251  eV     1   --> B_2  D_4  S_4  
     e( 30 - 30) =      7.09155  eV     1   --> B_2  D_4  S_4  
     e( 31 - 31) =      7.09375  eV     1   --> A_2  D_2  S_2  
     e( 32 - 32) =      7.27958  eV     1   --> B_2  D_4  S_4  
     e( 33 - 33) =      7.34167  eV     1   --> A_2  D_2  S_2  
     e( 34 - 34) =      7.36911  eV     1   --> A_1  D_1  S_1  
     e( 35 - 35) =      7.37677  eV     1   --> B_1  D_3  S_3  
     e( 36 - 36) =      7.42970  eV     1   --> B_2  D_4  S_4  
     e( 37 - 37) =      7.83002  eV     1   --> B_2  D_4  S_4  
     e( 38 - 38) =      7.86920  eV     1   --> A_2  D_2  S_2  
     e( 39 - 39) =      7.87365  eV     1   --> A_1  D_1  S_1  
     e( 40 - 40) =      7.94110  eV     1   --> A_1  D_1  S_1  
     e( 41 - 41) =      8.02138  eV     1   --> B_1  D_3  S_3  
     e( 42 - 42) =      8.02161  eV     1   --> A_1  D_1  S_1  
     e( 43 - 43) =      8.28490  eV     1   --> A_1  D_1  S_1  
     e( 44 - 44) =      8.31607  eV     1   --> A_1  D_1  S_1  
     e( 45 - 45) =      8.52314  eV     1   --> B_2  D_4  S_4  
     e( 46 - 46) =      8.57444  eV     1   --> B_1  D_3  S_3  
     e( 47 - 47) =      8.58452  eV     1   --> B_1  D_3  S_3  
     e( 48 - 48) =      8.58830  eV     1   --> A_1  D_1  S_1  
     e( 49 - 49) =      8.71599  eV     1   --> B_2  D_4  S_4  
     e( 50 - 50) =     10.16938  eV     1   --> B_2  D_4  S_4  
     e( 51 - 51) =     10.17028  eV     1   --> A_2  D_2  S_2  
     e( 52 - 52) =     12.30844  eV     1   --> A_1  D_1  S_1  
     e( 53 - 53) =     13.16587  eV     1   --> A_1  D_1  S_1  
     e( 54 - 54) =     13.29935  eV     1   --> A_1  D_1  S_1  
     e( 55 - 55) =     13.48268  eV     1   --> B_2  D_4  S_4  
     e( 56 - 56) =     14.41800  eV     1   --> A_1  D_1  S_1  
     e( 57 - 57) =     15.00775  eV     1   --> B_1  D_3  S_3  
     e( 58 - 58) =     15.11744  eV     1   --> B_2  D_4  S_4  
     e( 59 - 59) =     15.94860  eV     1   --> A_1  D_1  S_1  
     e( 60 - 60) =     16.05294  eV     1   --> B_1  D_3  S_3  
     e( 61 - 61) =     16.12891  eV     1   --> A_1  D_1  S_1  
     e( 62 - 62) =     16.16478  eV     1   --> B_2  D_4  S_4  
     e( 63 - 63) =     16.97120  eV     1   --> B_2  D_4  S_4  
     e( 64 - 64) =     16.98792  eV     1   --> A_2  D_2  S_2  
     e( 65 - 65) =     17.37863  eV     1   --> A_1  D_1  S_1  
     e( 66 - 66) =     17.73042  eV     1   --> B_2  D_4  S_4  
     e( 67 - 67) =     17.91290  eV     1   --> B_1  D_3  S_3  
     e( 68 - 68) =     17.92279  eV     1   --> A_2  D_2  S_2  
     e( 69 - 69) =     18.61375  eV     1   --> B_2  D_4  S_4  
     e( 70 - 70) =     18.62459  eV     1   --> A_2  D_2  S_2  
     e( 71 - 71) =     19.26888  eV     1   --> A_1  D_1  S_1  
     e( 72 - 72) =     20.23976  eV     1   --> A_1  D_1  S_1  
     e( 73 - 73) =     20.29446  eV     1   --> A_1  D_1  S_1  
     e( 74 - 74) =     20.44618  eV     1   --> B_1  D_3  S_3  
     e( 75 - 75) =     20.60286  eV     1   --> A_1  D_1  S_1  
     e( 76 - 76) =     21.84874  eV     1   --> B_2  D_4  S_4  
     e( 77 - 77) =     22.29845  eV     1   --> A_1  D_1  S_1  
     e( 78 - 78) =     22.33445  eV     1   --> B_1  D_3  S_3  
     e( 79 - 79) =     22.49592  eV     1   --> B_2  D_4  S_4  
     e( 80 - 80) =     22.74199  eV     1   --> A_1  D_1  S_1  

 **************************************************************************

 **************************************************************************

                    xk=(   0.00000,   0.05000,   0.00000  )

     Band symmetry, C_2v (mm2)  point group:

     e(  1 -  1) =    -30.96243  eV     1   --> A_1  D_1  S_1  
     e(  2 -  2) =    -16.04693  eV     1   --> A_1  D_1  S_1  
     e(  3 -  3) =    -16.04127  eV     1   --> B_2  D_4  S_4  
     e(  4 -  4) =    -11.77501  eV     1   --> B_2  D_4  S_4  
     e(  5 -  5) =    -11.07153  eV     1   --> A_1  D_1  S_1  
     e(  6 -  6) =    -11.04692  eV     1   --> B_1  D_3  S_3  
     e(  7 -  7) =     -8.67829  eV     1   --> A_1  D_1  S_1  
     e(  8 -  8) =     -7.50453  eV     1   --> B_2  D_4  S_4  
     e(  9 -  9) =     -7.38174  eV     1   --> A_1  D_1  S_1  
     e( 10 - 10) =     -7.09078  eV     1   --> B_2  D_4  S_4  
     e( 11 - 11) =     -6.67166  eV     1   --> A_1  D_1  S_1  
     e( 12 - 12) =     -6.31832  eV     1   --> B_2  D_4  S_4  
     e( 13 - 13) =     -1.38731  eV     1   --> A_1  D_1  S_1  
     e( 14 - 14) =     -1.16785  eV     1   --> B_2  D_4  S_4  
     e( 15 - 15) =     -0.86120  eV     1   --> A_1  D_1  S_1  
     e( 16 - 16) =     -0.85444  eV     1   --> B_2  D_4  S_4  
     e( 17 - 17) =     -0.85168  eV     1   --> B_1  D_3  S_3  
     e( 18 - 18) =     -0.84931  eV     1   --> A_2  D_2  S_2  
     e( 19 - 19) =      4.49493  eV     1   --> B_2  D_4  S_4  
     e( 20 - 20) =      4.51438  eV     1   --> A_2  D_2  S_2  
     e( 21 - 21) =      4.71740  eV     1   --> A_1  D_1  S_1  
     e( 22 - 22) =      4.90829  eV     1   --> A_1  D_1  S_1  
     e( 23 - 23) =      4.92743  eV     1   --> B_1  D_3  S_3  
     e( 24 - 24) =      5.12190  eV     1   --> A_1  D_1  S_1  
     e( 25 - 25) =      5.84649  eV     1   --> A_1  D_1  S_1  
     e( 26 - 26) =      6.47476  eV     1   --> B_2  D_4  S_4  
     e( 27 - 28) =      6.97292  eV     2   --> A_2  D_2  S_2  
     e( 27 - 28) =      6.97292  eV     2   --> B_1  D_3  S_3  
     e( 29 - 29) =      7.02084  eV     1   --> B_2  D_4  S_4  
     e( 30 - 30) =      7.02689  eV     1   --> B_2  D_4  S_4  
     e( 31 - 31) =      7.07038  eV     1   --> A_2  D_2  S_2  
     e( 32 - 32) =      7.26352  eV     1   --> B_2  D_4  S_4  
     e( 33 - 33) =      7.37649  eV     1   --> A_1  D_1  S_1  
     e( 34 - 34) =      7.38593  eV     1   --> A_2  D_2  S_2  
     e( 35 - 35) =      7.39939  eV     1   --> B_1  D_3  S_3  
     e( 36 - 36) =      7.53792  eV     1   --> B_2  D_4  S_4  
     e( 37 - 37) =      7.74112  eV     1   --> B_2  D_4  S_4  
     e( 38 - 38) =      7.84740  eV     1   --> A_1  D_1  S_1  
     e( 39 - 39) =      7.88168  eV     1   --> A_2  D_2  S_2  
     e( 40 - 40) =      7.88952  eV     1   --> A_1  D_1  S_1  
     e( 41 - 41) =      8.02386  eV     1   --> A_1  D_1  S_1  
     e( 42 - 42) =      8.03453  eV     1   --> B_1  D_3  S_3  
     e( 43 - 43) =      8.30138  eV     1   --> A_1  D_1  S_1  
     e( 44 - 44) =      8.34831  eV     1   --> A_1  D_1  S_1  
     e( 45 - 45) =      8.56461  eV     1   --> B_1  D_3  S_3  
     e( 46 - 46) =      8.58405  eV     1   --> B_1  D_3  S_3  
     e( 47 - 47) =      8.59016  eV     1   --> B_2  D_4  S_4  
     e( 48 - 48) =      8.60551  eV     1   --> A_1  D_1  S_1  
     e( 49 - 49) =      8.74256  eV     1   --> B_2  D_4  S_4  
     e( 50 - 50) =     10.15585  eV     1   --> B_2  D_4  S_4  
     e( 51 - 51) =     10.15946  eV     1   --> A_2  D_2  S_2  
     e( 52 - 52) =     12.34787  eV     1   --> A_1  D_1  S_1  
     e( 53 - 53) =     13.20662  eV     1   --> A_1  D_1  S_1  
     e( 54 - 54) =     13.29360  eV     1   --> A_1  D_1  S_1  
     e( 55 - 55) =     13.52171  eV     1   --> B_2  D_4  S_4  
     e( 56 - 56) =     14.44177  eV     1   --> A_1  D_1  S_1  
     e( 57 - 57) =     15.00300  eV     1   --> B_1  D_3  S_3  
     e( 58 - 58) =     15.15584  eV     1   --> B_2  D_4  S_4  
     e( 59 - 59) =     15.83678  eV     1   --> A_1  D_1  S_1  
     e( 60 - 60) =     16.05903  eV     1   --> B_1  D_3  S_3  
     e( 61 - 61) =     16.17287  eV     1   --> B_2  D_4  S_4  
     e( 62 - 62) =     16.20088  eV     1   --> A_1  D_1  S_1  
     e( 63 - 63) =     16.91893  eV     1   --> B_2  D_4  S_4  
     e( 64 - 64) =     16.97666  eV     1   --> A_2  D_2  S_2  
     e( 65 - 65) =     17.40577  eV     1   --> A_1  D_1  S_1  
     e( 66 - 66) =     17.81408  eV     1   --> B_2  D_4  S_4  
     e( 67 - 67) =     17.94028  eV     1   --> B_1  D_3  S_3  
     e( 68 - 68) =     17.95789  eV     1   --> A_2  D_2  S_2  
     e( 69 - 69) =     18.58664  eV     1   --> B_2  D_4  S_4  
     e( 70 - 70) =     18.62543  eV     1   --> A_2  D_2  S_2  
     e( 71 - 71) =     19.21248  eV     1   --> A_1  D_1  S_1  
     e( 72 - 72) =     20.13536  eV     1   --> A_1  D_1  S_1  
     e( 73 - 73) =     20.26149  eV     1   --> A_1  D_1  S_1  
     e( 74 - 74) =     20.45609  eV     1   --> B_1  D_3  S_3  
     e( 75 - 75) =     20.77134  eV     1   --> A_1  D_1  S_1  
     e( 76 - 76) =     21.87372  eV     1   --> B_2  D_4  S_4  
     e( 77 - 77) =     22.26170  eV     1   --> A_1  D_1  S_1  
     e( 78 - 78) =     22.37577  eV     1   --> B_1  D_3  S_3  
     e( 79 - 79) =     22.50818  eV     1   --> B_2  D_4  S_4  
     e( 80 - 80) =     22.90570  eV     1   --> A_1  D_1  S_1  

 **************************************************************************

 **************************************************************************

                    xk=(   0.00000,   0.07500,   0.00000  )

     Band symmetry, C_2v (mm2)  point group:

     e(  1 -  1) =    -30.96190  eV     1   --> A_1  D_1  S_1  
     e(  2 -  2) =    -16.04273  eV     1   --> A_1  D_1  S_1  
     e(  3 -  3) =    -16.03710  eV     1   --> B_2  D_4  S_4  
     e(  4 -  4) =    -11.76643  eV     1   --> B_2  D_4  S_4  
     e(  5 -  5) =    -11.10033  eV     1   --> A_1  D_1  S_1  
     e(  6 -  6) =    -11.04618  eV     1   --> B_1  D_3  S_3  
     e(  7 -  7) =     -8.64908  eV     1   --> A_1  D_1  S_1  
     e(  8 -  8) =     -7.50840  eV     1   --> B_2  D_4  S_4  
     e(  9 -  9) =     -7.37301  eV     1   --> A_1  D_1  S_1  
     e( 10 - 10) =     -7.09918  eV     1   --> B_2  D_4  S_4  
     e( 11 - 11) =     -6.68210  eV     1   --> A_1  D_1  S_1  
     e( 12 - 12) =     -6.32996  eV     1   --> B_2  D_4  S_4  
     e( 13 - 13) =     -1.38896  eV     1   --> A_1  D_1  S_1  
     e( 14 - 14) =     -1.17314  eV     1   --> B_2  D_4  S_4  
     e( 15 - 15) =     -0.86586  eV     1   --> A_1  D_1  S_1  
     e( 16 - 16) =     -0.85378  eV     1   --> B_2  D_4  S_4  
     e( 17 - 17) =     -0.84465  eV     1   --> B_1  D_3  S_3  
     e( 18 - 18) =     -0.84216  eV     1   --> A_2  D_2  S_2  
     e( 19 - 19) =      4.47936  eV     1   --> B_2  D_4  S_4  
     e( 20 - 20) =      4.52413  eV     1   --> A_2  D_2  S_2  
     e( 21 - 21) =      4.67944  eV     1   --> A_1  D_1  S_1  
     e( 22 - 22) =      4.89865  eV     1   --> A_1  D_1  S_1  
     e( 23 - 23) =      4.92956  eV     1   --> B_1  D_3  S_3  
     e( 24 - 24) =      5.12884  eV     1   --> A_1  D_1  S_1  
     e( 25 - 25) =      5.84163  eV     1   --> A_1  D_1  S_1  
     e( 26 - 26) =      6.45330  eV     1   --> B_2  D_4  S_4  
     e( 27 - 27) =      6.90102  eV     1   --> A_2  D_2  S_2  
     e( 28 - 28) =      6.90323  eV     1   --> B_1  D_3  S_3  
     e( 29 - 29) =      6.94588  eV     1   --> B_2  D_4  S_4  
     e( 30 - 30) =      7.01120  eV     1   --> B_2  D_4  S_4  
     e( 31 - 31) =      7.04876  eV     1   --> A_2  D_2  S_2  
     e( 32 - 32) =      7.26406  eV     1   --> B_2  D_4  S_4  
     e( 33 - 33) =      7.38953  eV     1   --> A_1  D_1  S_1  
     e( 34 - 34) =      7.42385  eV     1   --> B_1  D_3  S_3  
     e( 35 - 35) =      7.43403  eV     1   --> A_2  D_2  S_2  
     e( 36 - 36) =      7.62215  eV     1   --> B_2  D_4  S_4  
     e( 37 - 37) =      7.66149  eV     1   --> B_2  D_4  S_4  
     e( 38 - 38) =      7.74672  eV     1   --> A_1  D_1  S_1  
     e( 39 - 39) =      7.90279  eV     1   --> A_2  D_2  S_2  
     e( 40 - 40) =      7.90295  eV     1   --> A_1  D_1  S_1  
     e( 41 - 41) =      8.02452  eV     1   --> A_1  D_1  S_1  
     e( 42 - 42) =      8.05422  eV     1   --> B_1  D_3  S_3  
     e( 43 - 43) =      8.29000  eV     1   --> A_1  D_1  S_1  
     e( 44 - 44) =      8.38988  eV     1   --> A_1  D_1  S_1  
     e( 45 - 45) =      8.55126  eV     1   --> B_1  D_3  S_3  
     e( 46 - 46) =      8.58230  eV     1   --> B_1  D_3  S_3  
     e( 47 - 47) =      8.63988  eV     1   --> B_2  D_4  S_4  
     e( 48 - 48) =      8.64584  eV     1   --> A_1  D_1  S_1  
     e( 49 - 49) =      8.81292  eV     1   --> B_2  D_4  S_4  
     e( 50 - 50) =     10.13407  eV     1   --> B_2  D_4  S_4  
     e( 51 - 51) =     10.14199  eV     1   --> A_2  D_2  S_2  
     e( 52 - 52) =     12.41226  eV     1   --> A_1  D_1  S_1  
     e( 53 - 53) =     13.26187  eV     1   --> A_1  D_1  S_1  
     e( 54 - 54) =     13.29440  eV     1   --> A_1  D_1  S_1  
     e( 55 - 55) =     13.58634  eV     1   --> B_2  D_4  S_4  
     e( 56 - 56) =     14.47979  eV     1   --> A_1  D_1  S_1  
     e( 57 - 57) =     14.99528  eV     1   --> B_1  D_3  S_3  
     e( 58 - 58) =     15.21894  eV     1   --> B_2  D_4  S_4  
     e( 59 - 59) =     15.71540  eV     1   --> A_1  D_1  S_1  
     e( 60 - 60) =     16.06990  eV     1   --> B_1  D_3  S_3  
     e( 61 - 61) =     16.18583  eV     1   --> B_2  D_4  S_4  
     e( 62 - 62) =     16.26762  eV     1   --> A_1  D_1  S_1  
     e( 63 - 63) =     16.85101  eV     1   --> B_2  D_4  S_4  
     e( 64 - 64) =     16.96126  eV     1   --> A_2  D_2  S_2  
     e( 65 - 65) =     17.44105  eV     1   --> A_1  D_1  S_1  
     e( 66 - 66) =     17.93063  eV     1   --> B_2  D_4  S_4  
     e( 67 - 67) =     17.98411  eV     1   --> B_1  D_3  S_3  
     e( 68 - 68) =     18.01100  eV     1   --> A_2  D_2  S_2  
     e( 69 - 69) =     18.54842  eV     1   --> B_2  D_4  S_4  
     e( 70 - 70) =     18.62743  eV     1   --> A_2  D_2  S_2  
     e( 71 - 71) =     19.10544  eV     1   --> A_1  D_1  S_1  
     e( 72 - 72) =     20.06032  eV     1   --> A_1  D_1  S_1  
     e( 73 - 73) =     20.24838  eV     1   --> A_1  D_1  S_1  
     e( 74 - 74) =     20.47072  eV     1   --> B_1  D_3  S_3  
     e( 75 - 75) =     20.93159  eV     1   --> A_1  D_1  S_1  
     e( 76 - 76) =     21.91169  eV     1   --> B_2  D_4  S_4  
     e( 77 - 77) =     22.24204  eV     1   --> A_1  D_1  S_1  
     e( 78 - 78) =     22.44438  eV     1   --> B_1  D_3  S_3  
     e( 79 - 79) =     22.52565  eV     1   --> B_2  D_4  S_4  
     e( 80 - 80) =     23.12588  eV     1   --> A_1  D_1  S_1  

 **************************************************************************

 **************************************************************************

                    xk=(   0.00000,   0.10000,   0.00000  )

     Band symmetry, C_2v (mm2)  point group:

     e(  1 -  1) =    -30.96116  eV     1   --> A_1  D_1  S_1  
     e(  2 -  2) =    -16.03698  eV     1   --> A_1  D_1  S_1  
     e(  3 -  3) =    -16.03139  eV     1   --> B_2  D_4  S_4  
     e(  4 -  4) =    -11.75462  eV     1   --> B_2  D_4  S_4  
     e(  5 -  5) =    -11.13860  eV     1   --> A_1  D_1  S_1  
     e(  6 -  6) =    -11.04517  eV     1   --> B_1  D_3  S_3  
     e(  7 -  7) =     -8.61008  eV     1   --> A_1  D_1  S_1  
     e(  8 -  8) =     -7.51504  eV     1   --> B_2  D_4  S_4  
     e(  9 -  9) =     -7.36140  eV     1   --> A_1  D_1  S_1  
     e( 10 - 10) =     -7.10940  eV     1   --> B_2  D_4  S_4  
     e( 11 - 11) =     -6.69627  eV     1   --> A_1  D_1  S_1  
     e( 12 - 12) =     -6.34573  eV     1   --> B_2  D_4  S_4  
     e( 13 - 13) =     -1.39101  eV     1   --> A_1  D_1  S_1  
     e( 14 - 14) =     -1.17994  eV     1   --> B_2  D_4  S_4  
     e( 15 - 15) =     -0.87224  eV     1   --> A_1  D_1  S_1  
     e( 16 - 16) =     -0.85317  eV     1   --> B_2  D_4  S_4  
     e( 17 - 17) =     -0.83500  eV     1   --> B_1  D_3  S_3  
     e( 18 - 18) =     -0.83234  eV     1   --> A_2  D_2  S_2  
     e( 19 - 19) =      4.45602  eV     1   --> B_2  D_4  S_4  
     e( 20 - 20) =      4.53773  eV     1   --> A_2  D_2  S_2  
     e( 21 - 21) =      4.61977  eV     1   --> A_1  D_1  S_1  
     e( 22 - 22) =      4.89673  eV     1   --> A_1  D_1  S_1  
     e( 23 - 23) =      4.93261  eV     1   --> B_1  D_3  S_3  
     e( 24 - 24) =      5.13687  eV     1   --> A_1  D_1  S_1  
     e( 25 - 25) =      5.83366  eV     1   --> A_1  D_1  S_1  
     e( 26 - 26) =      6.42356  eV     1   --> B_2  D_4  S_4  
     e( 27 - 27) =      6.81805  eV     1   --> A_2  D_2  S_2  
     e( 28 - 28) =      6.82236  eV     1   --> B_1  D_3  S_3  
     e( 29 - 29) =      6.87244  eV     1   --> B_2  D_4  S_4  
     e( 30 - 30) =      6.99667  eV     1   --> B_2  D_4  S_4  
     e( 31 - 31) =      7.02457  eV     1   --> A_2  D_2  S_2  
     e( 32 - 32) =      7.26815  eV     1   --> B_2  D_4  S_4  
     e( 33 - 33) =      7.40742  eV     1   --> A_1  D_1  S_1  
     e( 34 - 34) =      7.44337  eV     1   --> B_1  D_3  S_3  
     e( 35 - 35) =      7.47768  eV     1   --> A_2  D_2  S_2  
     e( 36 - 36) =      7.50918  eV     1   --> B_2  D_4  S_4  
     e( 37 - 37) =      7.64234  eV     1   --> A_1  D_1  S_1  
     e( 38 - 38) =      7.77834  eV     1   --> B_2  D_4  S_4  
     e( 39 - 39) =      7.91954  eV     1   --> A_1  D_1  S_1  
     e( 40 - 40) =      7.93257  eV     1   --> A_2  D_2  S_2  
     e( 41 - 41) =      8.02401  eV     1   --> A_1  D_1  S_1  
     e( 42 - 42) =      8.07685  eV     1   --> B_1  D_3  S_3  
     e( 43 - 43) =      8.26991  eV     1   --> A_1  D_1  S_1  
     e( 44 - 44) =      8.41457  eV     1   --> A_1  D_1  S_1  
     e( 45 - 45) =      8.53718  eV     1   --> B_1  D_3  S_3  
     e( 46 - 46) =      8.57974  eV     1   --> B_1  D_3  S_3  
     e( 47 - 47) =      8.66139  eV     1   --> B_2  D_4  S_4  
     e( 48 - 48) =      8.70891  eV     1   --> A_1  D_1  S_1  
     e( 49 - 49) =      8.92041  eV     1   --> B_2  D_4  S_4  
     e( 50 - 50) =     10.10511  eV     1   --> B_2  D_4  S_4  
     e( 51 - 51) =     10.11866  eV     1   --> A_2  D_2  S_2  
     e( 52 - 52) =     12.49976  eV     1   --> A_1  D_1  S_1  
     e( 53 - 53) =     13.25391  eV     1   --> A_1  D_1  S_1  
     e( 54 - 54) =     13.37635  eV     1   --> A_1  D_1  S_1  
     e( 55 - 55) =     13.67591  eV     1   --> B_2  D_4  S_4  
     e( 56 - 56) =     14.52928  eV     1   --> A_1  D_1  S_1  
     e( 57 - 57) =     14.98487  eV     1   --> B_1  D_3  S_3  
     e( 58 - 58) =     15.30537  eV     1   --> B_2  D_4  S_4  
     e( 59 - 59) =     15.59287  eV     1   --> A_1  D_1  S_1  
     e( 60 - 60) =     16.08642  eV     1   --> B_1  D_3  S_3  
     e( 61 - 61) =     16.20329  eV     1   --> B_2  D_4  S_4  
     e( 62 - 62) =     16.33293  eV     1   --> A_1  D_1  S_1  
     e( 63 - 63) =     16.77824  eV     1   --> B_2  D_4  S_4  
     e( 64 - 64) =     16.94515  eV     1   --> A_2  D_2  S_2  
     e( 65 - 65) =     17.47543  eV     1   --> A_1  D_1  S_1  
     e( 66 - 66) =     18.04196  eV     1   --> B_1  D_3  S_3  
     e( 67 - 67) =     18.05992  eV     1   --> B_2  D_4  S_4  
     e( 68 - 68) =     18.07571  eV     1   --> A_2  D_2  S_2  
     e( 69 - 69) =     18.51216  eV     1   --> B_2  D_4  S_4  
     e( 70 - 70) =     18.63154  eV     1   --> A_2  D_2  S_2  
     e( 71 - 71) =     18.95261  eV     1   --> A_1  D_1  S_1  
     e( 72 - 72) =     20.02474  eV     1   --> A_1  D_1  S_1  
     e( 73 - 73) =     20.24994  eV     1   --> A_1  D_1  S_1  
     e( 74 - 74) =     20.48728  eV     1   --> B_1  D_3  S_3  
     e( 75 - 75) =     21.08024  eV     1   --> A_1  D_1  S_1  
     e( 76 - 76) =     21.95835  eV     1   --> B_2  D_4  S_4  
     e( 77 - 77) =     22.24803  eV     1   --> A_1  D_1  S_1  
     e( 78 - 78) =     22.53973  eV     1   --> B_1  D_3  S_3  
     e( 79 - 79) =     22.54378  eV     1   --> B_2  D_4  S_4  
     e( 80 - 80) =     23.38012  eV     1   --> A_1  D_1  S_1  

 **************************************************************************

 **************************************************************************

                    xk=(   0.00000,   0.12500,   0.00000  )

     Band symmetry, C_2v (mm2)  point group:

     e(  1 -  1) =    -30.96025  eV     1   --> A_1  D_1  S_1  
     e(  2 -  2) =    -16.02982  eV     1   --> A_1  D_1  S_1  
     e(  3 -  3) =    -16.02427  eV     1   --> B_2  D_4  S_4  
     e(  4 -  4) =    -11.73979  eV     1   --> B_2  D_4  S_4  
     e(  5 -  5) =    -11.18460  eV     1   --> A_1  D_1  S_1  
     e(  6 -  6) =    -11.04391  eV     1   --> B_1  D_3  S_3  
     e(  7 -  7) =     -8.56286  eV     1   --> A_1  D_1  S_1  
     e(  8 -  8) =     -7.52557  eV     1   --> B_2  D_4  S_4  
     e(  9 -  9) =     -7.34750  eV     1   --> A_1  D_1  S_1  
     e( 10 - 10) =     -7.12002  eV     1   --> B_2  D_4  S_4  
     e( 11 - 11) =     -6.71374  eV     1   --> A_1  D_1  S_1  
     e( 12 - 12) =     -6.36518  eV     1   --> B_2  D_4  S_4  
     e( 13 - 13) =     -1.39325  eV     1   --> A_1  D_1  S_1  
     e( 14 - 14) =     -1.18772  eV     1   --> B_2  D_4  S_4  
     e( 15 - 15) =     -0.88019  eV     1   --> A_1  D_1  S_1  
     e( 16 - 16) =     -0.85287  eV     1   --> B_2  D_4  S_4  
     e( 17 - 17) =     -0.82294  eV     1   --> B_1  D_3  S_3  
     e( 18 - 18) =     -0.82008  eV     1   --> A_2  D_2  S_2  
     e( 19 - 19) =      4.42379  eV     1   --> B_2  D_4  S_4  
     e( 20 - 20) =      4.54156  eV     1   --> A_1  D_1  S_1  
     e( 21 - 21) =      4.55509  eV     1   --> A_2  D_2  S_2  
     e( 22 - 22) =      4.90195  eV     1   --> A_1  D_1  S_1  
     e( 23 - 23) =      4.93668  eV     1   --> B_1  D_3  S_3  
     e( 24 - 24) =      5.14572  eV     1   --> A_1  D_1  S_1  
     e( 25 - 25) =      5.82270  eV     1   --> A_1  D_1  S_1  
     e( 26 - 26) =      6.38630  eV     1   --> B_2  D_4  S_4  
     e( 27 - 27) =      6.72978  eV     1   --> A_2  D_2  S_2  
     e( 28 - 28) =      6.73507  eV     1   --> B_1  D_3  S_3  
     e( 29 - 29) =      6.80945  eV     1   --> B_2  D_4  S_4  
     e( 30 - 30) =      6.98104  eV     1   --> B_2  D_4  S_4  
     e( 31 - 31) =      6.99594  eV     1   --> A_2  D_2  S_2  
     e( 32 - 32) =      7.26757  eV     1   --> B_2  D_4  S_4  
     e( 33 - 33) =      7.39968  eV     1   --> B_2  D_4  S_4  
     e( 34 - 34) =      7.41986  eV     1   --> A_1  D_1  S_1  
     e( 35 - 35) =      7.45510  eV     1   --> B_1  D_3  S_3  
     e( 36 - 36) =      7.51412  eV     1   --> A_2  D_2  S_2  
     e( 37 - 37) =      7.55073  eV     1   --> A_1  D_1  S_1  
     e( 38 - 38) =      7.90150  eV     1   --> B_2  D_4  S_4  
     e( 39 - 39) =      7.93276  eV     1   --> A_1  D_1  S_1  
     e( 40 - 40) =      7.97029  eV     1   --> A_2  D_2  S_2  
     e( 41 - 41) =      8.02141  eV     1   --> A_1  D_1  S_1  
     e( 42 - 42) =      8.09731  eV     1   --> B_1  D_3  S_3  
     e( 43 - 43) =      8.24545  eV     1   --> A_1  D_1  S_1  
     e( 44 - 44) =      8.43191  eV     1   --> A_1  D_1  S_1  
     e( 45 - 45) =      8.52640  eV     1   --> B_1  D_3  S_3  
     e( 46 - 46) =      8.57701  eV     1   --> B_1  D_3  S_3  
     e( 47 - 47) =      8.67217  eV     1   --> B_2  D_4  S_4  
     e( 48 - 48) =      8.78281  eV     1   --> A_1  D_1  S_1  
     e( 49 - 49) =      9.03845  eV     1   --> B_2  D_4  S_4  
     e( 50 - 50) =     10.07032  eV     1   --> B_2  D_4  S_4  
     e( 51 - 51) =     10.09049  eV     1   --> A_2  D_2  S_2  
     e( 52 - 52) =     12.60790  eV     1   --> A_1  D_1  S_1  
     e( 53 - 53) =     13.22323  eV     1   --> A_1  D_1  S_1  
     e( 54 - 54) =     13.49507  eV     1   --> A_1  D_1  S_1  
     e( 55 - 55) =     13.78939  eV     1   --> B_2  D_4  S_4  
     e( 56 - 56) =     14.58556  eV     1   --> A_1  D_1  S_1  
     e( 57 - 57) =     14.97216  eV     1   --> B_1  D_3  S_3  
     e( 58 - 58) =     15.41315  eV     1   --> B_2  D_4  S_4  
     e( 59 - 59) =     15.47934  eV     1   --> A_1  D_1  S_1  
     e( 60 - 60) =     16.10955  eV     1   --> B_1  D_3  S_3  
     e( 61 - 61) =     16.22534  eV     1   --> B_2  D_4  S_4  
     e( 62 - 62) =     16.39784  eV     1   --> A_1  D_1  S_1  
     e( 63 - 63) =     16.70539  eV     1   --> B_2  D_4  S_4  
     e( 64 - 64) =     16.93128  eV     1   --> A_2  D_2  S_2  
     e( 65 - 65) =     17.50270  eV     1   --> A_1  D_1  S_1  
     e( 66 - 66) =     18.11077  eV     1   --> B_1  D_3  S_3  
     e( 67 - 67) =     18.14494  eV     1   --> A_2  D_2  S_2  
     e( 68 - 68) =     18.16942  eV     1   --> B_2  D_4  S_4  
     e( 69 - 69) =     18.50921  eV     1   --> B_2  D_4  S_4  
     e( 70 - 70) =     18.63912  eV     1   --> A_2  D_2  S_2  
     e( 71 - 71) =     18.77450  eV     1   --> A_1  D_1  S_1  
     e( 72 - 72) =     20.00111  eV     1   --> A_1  D_1  S_1  
     e( 73 - 73) =     20.28011  eV     1   --> A_1  D_1  S_1  
     e( 74 - 74) =     20.50198  eV     1   --> B_1  D_3  S_3  
     e( 75 - 75) =     21.21302  eV     1   --> A_1  D_1  S_1  
     e( 76 - 76) =     22.00927  eV     1   --> B_2  D_4  S_4  
     e( 77 - 77) =     22.28408  eV     1   --> A_1  D_1  S_1  
     e( 78 - 78) =     22.55589  eV     1   --> B_2  D_4  S_4  
     e( 79 - 79) =     22.66081  eV     1   --> B_1  D_3  S_3  
     e( 80 - 80) =     23.64467  eV     1   --> A_1  D_1  S_1  

 **************************************************************************

 **************************************************************************

                    xk=(   0.00000,   0.15000,   0.00000  )

     Band symmetry, C_2v (mm2)  point group:

     e(  1 -  1) =    -30.95918  eV     1   --> A_1  D_1  S_1  
     e(  2 -  2) =    -16.02140  eV     1   --> A_1  D_1  S_1  
     e(  3 -  3) =    -16.01590  eV     1   --> B_2  D_4  S_4  
     e(  4 -  4) =    -11.72220  eV     1   --> B_2  D_4  S_4  
     e(  5 -  5) =    -11.23649  eV     1   --> A_1  D_1  S_1  
     e(  6 -  6) =    -11.04244  eV     1   --> B_1  D_3  S_3  
     e(  7 -  7) =     -8.50905  eV     1   --> A_1  D_1  S_1  
     e(  8 -  8) =     -7.54117  eV     1   --> B_2  D_4  S_4  
     e(  9 -  9) =     -7.33206  eV     1   --> A_1  D_1  S_1  
     e( 10 - 10) =     -7.12945  eV     1   --> B_2  D_4  S_4  
     e( 11 - 11) =     -6.73393  eV     1   --> A_1  D_1  S_1  
     e( 12 - 12) =     -6.38775  eV     1   --> B_2  D_4  S_4  
     e( 13 - 13) =     -1.39544  eV     1   --> A_1  D_1  S_1  
     e( 14 - 14) =     -1.19590  eV     1   --> B_2  D_4  S_4  
     e( 15 - 15) =     -0.88954  eV     1   --> A_1  D_1  S_1  
     e( 16 - 16) =     -0.85314  eV     1   --> B_2  D_4  S_4  
     e( 17 - 17) =     -0.80873  eV     1   --> B_1  D_3  S_3  
     e( 18 - 18) =     -0.80561  eV     1   --> A_2  D_2  S_2  
     e( 19 - 19) =      4.38182  eV     1   --> B_2  D_4  S_4  
     e( 20 - 20) =      4.44990  eV     1   --> A_1  D_1  S_1  
     e( 21 - 21) =      4.57612  eV     1   --> A_2  D_2  S_2  
     e( 22 - 22) =      4.91141  eV     1   --> A_1  D_1  S_1  
     e( 23 - 23) =      4.94184  eV     1   --> B_1  D_3  S_3  
     e( 24 - 24) =      5.15527  eV     1   --> A_1  D_1  S_1  
     e( 25 - 25) =      5.80982  eV     1   --> A_1  D_1  S_1  
     e( 26 - 26) =      6.34294  eV     1   --> B_2  D_4  S_4  
     e( 27 - 27) =      6.63879  eV     1   --> A_2  D_2  S_2  
     e( 28 - 28) =      6.64430  eV     1   --> B_1  D_3  S_3  
     e( 29 - 29) =      6.75944  eV     1   --> B_2  D_4  S_4  
     e( 30 - 30) =      6.96263  eV     1   --> A_2  D_2  S_2  
     e( 31 - 31) =      6.96359  eV     1   --> B_2  D_4  S_4  
     e( 32 - 32) =      7.24023  eV     1   --> B_2  D_4  S_4  
     e( 33 - 33) =      7.32367  eV     1   --> B_2  D_4  S_4  
     e( 34 - 34) =      7.37777  eV     1   --> A_1  D_1  S_1  
     e( 35 - 35) =      7.45819  eV     1   --> B_1  D_3  S_3  
     e( 36 - 36) =      7.52221  eV     1   --> A_1  D_1  S_1  
     e( 37 - 37) =      7.54314  eV     1   --> A_2  D_2  S_2  
     e( 38 - 38) =      7.93642  eV     1   --> A_1  D_1  S_1  
     e( 39 - 39) =      8.01435  eV     1   --> A_2  D_2  S_2  
     e( 40 - 40) =      8.01549  eV     1   --> A_1  D_1  S_1  
     e( 41 - 41) =      8.02520  eV     1   --> B_2  D_4  S_4  
     e( 42 - 42) =      8.11005  eV     1   --> B_1  D_3  S_3  
     e( 43 - 43) =      8.22494  eV     1   --> A_1  D_1  S_1  
     e( 44 - 44) =      8.45041  eV     1   --> A_1  D_1  S_1  
     e( 45 - 45) =      8.52288  eV     1   --> B_1  D_3  S_3  
     e( 46 - 46) =      8.57540  eV     1   --> B_1  D_3  S_3  
     e( 47 - 47) =      8.67947  eV     1   --> B_2  D_4  S_4  
     e( 48 - 48) =      8.85756  eV     1   --> A_1  D_1  S_1  
     e( 49 - 49) =      9.15471  eV     1   --> B_2  D_4  S_4  
     e( 50 - 50) =     10.03115  eV     1   --> B_2  D_4  S_4  
     e( 51 - 51) =     10.05864  eV     1   --> A_2  D_2  S_2  
     e( 52 - 52) =     12.73376  eV     1   --> A_1  D_1  S_1  
     e( 53 - 53) =     13.17892  eV     1   --> A_1  D_1  S_1  
     e( 54 - 54) =     13.63728  eV     1   --> A_1  D_1  S_1  
     e( 55 - 55) =     13.92527  eV     1   --> B_2  D_4  S_4  
     e( 56 - 56) =     14.64138  eV     1   --> A_1  D_1  S_1  
     e( 57 - 57) =     14.95759  eV     1   --> B_1  D_3  S_3  
     e( 58 - 58) =     15.38607  eV     1   --> A_1  D_1  S_1  
     e( 59 - 59) =     15.53940  eV     1   --> B_2  D_4  S_4  
     e( 60 - 60) =     16.14012  eV     1   --> B_1  D_3  S_3  
     e( 61 - 61) =     16.25297  eV     1   --> B_2  D_4  S_4  
     e( 62 - 62) =     16.46049  eV     1   --> A_1  D_1  S_1  
     e( 63 - 63) =     16.63392  eV     1   --> B_2  D_4  S_4  
     e( 64 - 64) =     16.92176  eV     1   --> A_2  D_2  S_2  
     e( 65 - 65) =     17.52009  eV     1   --> A_1  D_1  S_1  
     e( 66 - 66) =     18.18718  eV     1   --> B_1  D_3  S_3  
     e( 67 - 67) =     18.20813  eV     1   --> B_2  D_4  S_4  
     e( 68 - 68) =     18.21170  eV     1   --> A_2  D_2  S_2  
     e( 69 - 69) =     18.59196  eV     1   --> B_2  D_4  S_4  
     e( 70 - 70) =     18.59336  eV     1   --> A_1  D_1  S_1  
     e( 71 - 71) =     18.65188  eV     1   --> A_2  D_2  S_2  
     e( 72 - 72) =     19.97083  eV     1   --> A_1  D_1  S_1  
     e( 73 - 73) =     20.34112  eV     1   --> A_1  D_1  S_1  
     e( 74 - 74) =     20.51031  eV     1   --> B_1  D_3  S_3  
     e( 75 - 75) =     21.32204  eV     1   --> A_1  D_1  S_1  
     e( 76 - 76) =     22.06050  eV     1   --> B_2  D_4  S_4  
     e( 77 - 77) =     22.35654  eV     1   --> A_1  D_1  S_1  
     e( 78 - 78) =     22.55327  eV     1   --> B_2  D_4  S_4  
     e( 79 - 79) =     22.80560  eV     1   --> B_1  D_3  S_3  
     e( 80 - 80) =     23.86768  eV     1   -->   ?

 **************************************************************************

 **************************************************************************

                    xk=(   0.00000,   0.17500,   0.00000  )

     Band symmetry, C_2v (mm2)  point group:

     e(  1 -  1) =    -30.95798  eV     1   --> A_1  D_1  S_1  
     e(  2 -  2) =    -16.01192  eV     1   --> A_1  D_1  S_1  
     e(  3 -  3) =    -16.00648  eV     1   --> B_2  D_4  S_4  
     e(  4 -  4) =    -11.70219  eV     1   --> B_2  D_4  S_4  
     e(  5 -  5) =    -11.29240  eV     1   --> A_1  D_1  S_1  
     e(  6 -  6) =    -11.04078  eV     1   --> B_1  D_3  S_3  
     e(  7 -  7) =     -8.45033  eV     1   --> A_1  D_1  S_1  
     e(  8 -  8) =     -7.56273  eV     1   --> B_2  D_4  S_4  
     e(  9 -  9) =     -7.31598  eV     1   --> A_1  D_1  S_1  
     e( 10 - 10) =     -7.13625  eV     1   --> B_2  D_4  S_4  
     e( 11 - 11) =     -6.75610  eV     1   --> A_1  D_1  S_1  
     e( 12 - 12) =     -6.41282  eV     1   --> B_2  D_4  S_4  
     e( 13 - 13) =     -1.39733  eV     1   --> A_1  D_1  S_1  
     e( 14 - 14) =     -1.20393  eV     1   --> B_2  D_4  S_4  
     e( 15 - 15) =     -0.90009  eV     1   --> A_1  D_1  S_1  
     e( 16 - 16) =     -0.85420  eV     1   --> B_2  D_4  S_4  
     e( 17 - 17) =     -0.79266  eV     1   --> B_1  D_3  S_3  
     e( 18 - 18) =     -0.78926  eV     1   --> A_2  D_2  S_2  
     e( 19 - 19) =      4.32986  eV     1   --> B_2  D_4  S_4  
     e( 20 - 20) =      4.34937  eV     1   --> A_1  D_1  S_1  
     e( 21 - 21) =      4.60072  eV     1   --> A_2  D_2  S_2  
     e( 22 - 22) =      4.92247  eV     1   --> A_1  D_1  S_1  
     e( 23 - 23) =      4.94817  eV     1   --> B_1  D_3  S_3  
     e( 24 - 24) =      5.16530  eV     1   --> A_1  D_1  S_1  
     e( 25 - 25) =      5.79686  eV     1   --> A_1  D_1  S_1  
     e( 26 - 26) =      6.29528  eV     1   --> B_2  D_4  S_4  
     e( 27 - 27) =      6.54658  eV     1   --> A_2  D_2  S_2  
     e( 28 - 28) =      6.55204  eV     1   --> B_1  D_3  S_3  
     e( 29 - 29) =      6.72312  eV     1   --> B_2  D_4  S_4  
     e( 30 - 30) =      6.92498  eV     1   --> A_2  D_2  S_2  
     e( 31 - 31) =      6.94223  eV     1   --> B_2  D_4  S_4  
     e( 32 - 32) =      7.16857  eV     1   --> B_2  D_4  S_4  
     e( 33 - 33) =      7.28572  eV     1   --> A_1  D_1  S_1  
     e( 34 - 34) =      7.30288  eV     1   --> B_2  D_4  S_4  
     e( 35 - 35) =      7.45265  eV     1   --> B_1  D_3  S_3  
     e( 36 - 36) =      7.55022  eV     1   --> A_1  D_1  S_1  
     e( 37 - 37) =      7.56575  eV     1   --> A_2  D_2  S_2  
     e( 38 - 38) =      7.92477  eV     1   --> A_1  D_1  S_1  
     e( 39 - 39) =      8.00742  eV     1   --> A_1  D_1  S_1  
     e( 40 - 40) =      8.06269  eV     1   --> A_2  D_2  S_2  
     e( 41 - 41) =      8.11129  eV     1   --> B_1  D_3  S_3  
     e( 42 - 42) =      8.14798  eV     1   --> B_2  D_4  S_4  
     e( 43 - 43) =      8.21661  eV     1   --> A_1  D_1  S_1  
     e( 44 - 44) =      8.47386  eV     1   --> A_1  D_1  S_1  
     e( 45 - 45) =      8.52698  eV     1   --> B_1  D_3  S_3  
     e( 46 - 46) =      8.57829  eV     1   --> B_1  D_3  S_3  
     e( 47 - 47) =      8.68540  eV     1   --> B_2  D_4  S_4  
     e( 48 - 48) =      8.92782  eV     1   --> A_1  D_1  S_1  
     e( 49 - 49) =      9.26402  eV     1   --> B_2  D_4  S_4  
     e( 50 - 50) =      9.98917  eV     1   --> B_2  D_4  S_4  
     e( 51 - 51) =     10.02429  eV     1   --> A_2  D_2  S_2  
     e( 52 - 52) =     12.87391  eV     1   --> A_1  D_1  S_1  
     e( 53 - 53) =     13.12016  eV     1   --> A_1  D_1  S_1  
     e( 54 - 54) =     13.79977  eV     1   --> A_1  D_1  S_1  
     e( 55 - 55) =     14.08143  eV     1   --> B_2  D_4  S_4  
     e( 56 - 56) =     14.68675  eV     1   --> A_1  D_1  S_1  
     e( 57 - 57) =     14.94166  eV     1   --> B_1  D_3  S_3  
     e( 58 - 58) =     15.32493  eV     1   --> A_1  D_1  S_1  
     e( 59 - 59) =     15.67968  eV     1   --> B_2  D_4  S_4  
     e( 60 - 60) =     16.17870  eV     1   --> B_1  D_3  S_3  
     e( 61 - 61) =     16.28829  eV     1   --> B_2  D_4  S_4  
     e( 62 - 62) =     16.51644  eV     1   --> A_1  D_1  S_1  
     e( 63 - 63) =     16.56474  eV     1   --> B_2  D_4  S_4  
     e( 64 - 64) =     16.91783  eV     1   --> A_2  D_2  S_2  
     e( 65 - 65) =     17.52709  eV     1   --> A_1  D_1  S_1  
     e( 66 - 66) =     18.18568  eV     1   --> B_2  D_4  S_4  
     e( 67 - 67) =     18.26770  eV     1   --> B_1  D_3  S_3  
     e( 68 - 68) =     18.26983  eV     1   --> A_2  D_2  S_2  
     e( 69 - 69) =     18.42805  eV     1   --> A_1  D_1  S_1  
     e( 70 - 70) =     18.67120  eV     1   --> A_2  D_2  S_2  
     e( 71 - 71) =     18.75238  eV     1   --> B_2  D_4  S_4  
     e( 72 - 72) =     19.93298  eV     1   --> A_1  D_1  S_1  
     e( 73 - 73) =     20.42185  eV     1   --> A_1  D_1  S_1  
     e( 74 - 74) =     20.50752  eV     1   --> B_1  D_3  S_3  
     e( 75 - 75) =     21.39800  eV     1   --> A_1  D_1  S_1  
     e( 76 - 76) =     22.10842  eV     1   --> B_2  D_4  S_4  
     e( 77 - 77) =     22.47169  eV     1   --> A_1  D_1  S_1  
     e( 78 - 78) =     22.52685  eV     1   --> B_2  D_4  S_4  
     e( 79 - 79) =     22.96971  eV     1   --> B_1  D_3  S_3  
     e( 80 - 80) =     23.83848  eV     1   --> B_1  D_3  S_3  

 **************************************************************************

 **************************************************************************

                    xk=(   0.00000,   0.20000,   0.00000  )

     Band symmetry, C_2v (mm2)  point group:

     e(  1 -  1) =    -30.95668  eV     1   --> A_1  D_1  S_1  
     e(  2 -  2) =    -16.00159  eV     1   --> A_1  D_1  S_1  
     e(  3 -  3) =    -15.99622  eV     1   --> B_2  D_4  S_4  
     e(  4 -  4) =    -11.68013  eV     1   --> B_2  D_4  S_4  
     e(  5 -  5) =    -11.35058  eV     1   --> A_1  D_1  S_1  
     e(  6 -  6) =    -11.03898  eV     1   --> B_1  D_3  S_3  
     e(  7 -  7) =     -8.38821  eV     1   --> A_1  D_1  S_1  
     e(  8 -  8) =     -7.59062  eV     1   --> B_2  D_4  S_4  
     e(  9 -  9) =     -7.30030  eV     1   --> A_1  D_1  S_1  
     e( 10 - 10) =     -7.13944  eV     1   --> B_2  D_4  S_4  
     e( 11 - 11) =     -6.77940  eV     1   --> A_1  D_1  S_1  
     e( 12 - 12) =     -6.43974  eV     1   --> B_2  D_4  S_4  
     e( 13 - 13) =     -1.39871  eV     1   --> A_1  D_1  S_1  
     e( 14 - 14) =     -1.21125  eV     1   --> B_2  D_4  S_4  
     e( 15 - 15) =     -0.91162  eV     1   --> A_1  D_1  S_1  
     e( 16 - 16) =     -0.85628  eV     1   --> B_2  D_4  S_4  
     e( 17 - 17) =     -0.77509  eV     1   --> B_1  D_3  S_3  
     e( 18 - 18) =     -0.77138  eV     1   --> A_2  D_2  S_2  
     e( 19 - 19) =      4.24371  eV     1   --> A_1  D_1  S_1  
     e( 20 - 20) =      4.26835  eV     1   --> B_2  D_4  S_4  
     e( 21 - 21) =      4.62874  eV     1   --> A_2  D_2  S_2  
     e( 22 - 22) =      4.93315  eV     1   --> A_1  D_1  S_1  
     e( 23 - 23) =      4.95574  eV     1   --> B_1  D_3  S_3  
     e( 24 - 24) =      5.17539  eV     1   --> A_1  D_1  S_1  
     e( 25 - 25) =      5.78628  eV     1   --> A_1  D_1  S_1  
     e( 26 - 26) =      6.24522  eV     1   --> B_2  D_4  S_4  
     e( 27 - 27) =      6.45416  eV     1   --> A_2  D_2  S_2  
     e( 28 - 28) =      6.45984  eV     1   --> B_1  D_3  S_3  
     e( 29 - 29) =      6.69968  eV     1   --> B_2  D_4  S_4  
     e( 30 - 30) =      6.88362  eV     1   --> A_2  D_2  S_2  
     e( 31 - 31) =      6.91376  eV     1   --> B_2  D_4  S_4  
     e( 32 - 32) =      7.09810  eV     1   --> B_2  D_4  S_4  
     e( 33 - 33) =      7.18570  eV     1   --> A_1  D_1  S_1  
     e( 34 - 34) =      7.29642  eV     1   --> B_2  D_4  S_4  
     e( 35 - 35) =      7.43878  eV     1   --> B_1  D_3  S_3  
     e( 36 - 36) =      7.58331  eV     1   --> A_2  D_2  S_2  
     e( 37 - 37) =      7.58718  eV     1   --> A_1  D_1  S_1  
     e( 38 - 38) =      7.89923  eV     1   --> A_1  D_1  S_1  
     e( 39 - 39) =      8.00098  eV     1   --> A_1  D_1  S_1  
     e( 40 - 40) =      8.10111  eV     1   --> B_1  D_3  S_3  
     e( 41 - 41) =      8.11313  eV     1   --> A_2  D_2  S_2  
     e( 42 - 42) =      8.22183  eV     1   --> A_1  D_1  S_1  
     e( 43 - 43) =      8.26850  eV     1   --> B_2  D_4  S_4  
     e( 44 - 44) =      8.50385  eV     1   --> A_1  D_1  S_1  
     e( 45 - 45) =      8.53194  eV     1   --> B_1  D_3  S_3  
     e( 46 - 46) =      8.59271  eV     1   --> B_1  D_3  S_3  
     e( 47 - 47) =      8.69074  eV     1   --> B_2  D_4  S_4  
     e( 48 - 48) =      8.99093  eV     1   --> A_1  D_1  S_1  
     e( 49 - 49) =      9.36380  eV     1   --> B_2  D_4  S_4  
     e( 50 - 50) =      9.94581  eV     1   --> B_2  D_4  S_4  
     e( 51 - 51) =      9.98865  eV     1   --> A_2  D_2  S_2  
     e( 52 - 52) =     13.01715  eV     1   --> A_1  D_1  S_1  
     e( 53 - 53) =     13.05424  eV     1   --> A_1  D_1  S_1  
     e( 54 - 54) =     13.97895  eV     1   --> A_1  D_1  S_1  
     e( 55 - 55) =     14.25500  eV     1   --> B_2  D_4  S_4  
     e( 56 - 56) =     14.71259  eV     1   --> A_1  D_1  S_1  
     e( 57 - 57) =     14.92488  eV     1   --> B_1  D_3  S_3  
     e( 58 - 58) =     15.30489  eV     1   --> A_1  D_1  S_1  
     e( 59 - 59) =     15.82594  eV     1   --> B_2  D_4  S_4  
     e( 60 - 60) =     16.22559  eV     1   --> B_1  D_3  S_3  
     e( 61 - 61) =     16.33379  eV     1   --> B_2  D_4  S_4  
     e( 62 - 62) =     16.50226  eV     1   --> B_2  D_4  S_4  
     e( 63 - 63) =     16.55942  eV     1   --> A_1  D_1  S_1  
     e( 64 - 64) =     16.92007  eV     1   --> A_2  D_2  S_2  
     e( 65 - 65) =     17.52308  eV     1   --> A_1  D_1  S_1  
     e( 66 - 66) =     18.14283  eV     1   --> B_2  D_4  S_4  
     e( 67 - 67) =     18.29602  eV     1   --> A_1  D_1  S_1  
     e( 68 - 68) =     18.31539  eV     1   --> A_2  D_2  S_2  
     e( 69 - 69) =     18.34884  eV     1   --> B_1  D_3  S_3  
     e( 70 - 70) =     18.69693  eV     1   --> A_2  D_2  S_2  
     e( 71 - 71) =     18.95019  eV     1   --> B_2  D_4  S_4  
     e( 72 - 72) =     19.89197  eV     1   --> A_1  D_1  S_1  
     e( 73 - 73) =     20.48944  eV     1   --> B_1  D_3  S_3  
     e( 74 - 74) =     20.51051  eV     1   --> A_1  D_1  S_1  
     e( 75 - 75) =     21.43656  eV     1   --> A_1  D_1  S_1  
     e( 76 - 76) =     22.14798  eV     1   --> B_2  D_4  S_4  
     e( 77 - 77) =     22.47261  eV     1   --> B_2  D_4  S_4  
     e( 78 - 78) =     22.62948  eV     1   --> A_1  D_1  S_1  
     e( 79 - 79) =     23.14193  eV     1   --> B_1  D_3  S_3  
     e( 80 - 80) =     23.74532  eV     1   --> B_1  D_3  S_3  

 **************************************************************************

 **************************************************************************

                    xk=(   0.00000,   0.22500,   0.00000  )

     Band symmetry, C_2v (mm2)  point group:

     e(  1 -  1) =    -30.95532  eV     1   --> A_1  D_1  S_1  
     e(  2 -  2) =    -15.99066  eV     1   --> A_1  D_1  S_1  
     e(  3 -  3) =    -15.98537  eV     1   --> B_2  D_4  S_4  
     e(  4 -  4) =    -11.65648  eV     1   --> B_2  D_4  S_4  
     e(  5 -  5) =    -11.40942  eV     1   --> A_1  D_1  S_1  
     e(  6 -  6) =    -11.03709  eV     1   --> B_1  D_3  S_3  
     e(  7 -  7) =     -8.32413  eV     1   --> A_1  D_1  S_1  
     e(  8 -  8) =     -7.62443  eV     1   --> B_2  D_4  S_4  
     e(  9 -  9) =     -7.28613  eV     1   --> A_1  D_1  S_1  
     e( 10 - 10) =     -7.13873  eV     1   --> B_2  D_4  S_4  
     e( 11 - 11) =     -6.80282  eV     1   --> A_1  D_1  S_1  
     e( 12 - 12) =     -6.46785  eV     1   --> B_2  D_4  S_4  
     e( 13 - 13) =     -1.39944  eV     1   --> A_1  D_1  S_1  
     e( 14 - 14) =     -1.21742  eV     1   --> B_2  D_4  S_4  
     e( 15 - 15) =     -0.92389  eV     1   --> A_1  D_1  S_1  
     e( 16 - 16) =     -0.85952  eV     1   --> B_2  D_4  S_4  
     e( 17 - 17) =     -0.75642  eV     1   --> B_1  D_3  S_3  
     e( 18 - 18) =     -0.75237  eV     1   --> A_2  D_2  S_2  
     e( 19 - 19) =      4.13607  eV     1   --> A_1  D_1  S_1  
     e( 20 - 20) =      4.19866  eV     1   --> B_2  D_4  S_4  
     e( 21 - 21) =      4.65999  eV     1   --> A_2  D_2  S_2  
     e( 22 - 22) =      4.94215  eV     1   --> A_1  D_1  S_1  
     e( 23 - 23) =      4.96463  eV     1   --> B_1  D_3  S_3  
     e( 24 - 24) =      5.18491  eV     1   --> A_1  D_1  S_1  
     e( 25 - 25) =      5.78048  eV     1   --> A_1  D_1  S_1  
     e( 26 - 26) =      6.19437  eV     1   --> B_2  D_4  S_4  
     e( 27 - 27) =      6.36229  eV     1   --> A_2  D_2  S_2  
     e( 28 - 28) =      6.36893  eV     1   --> B_1  D_3  S_3  
     e( 29 - 29) =      6.68657  eV     1   --> B_2  D_4  S_4  
     e( 30 - 30) =      6.83941  eV     1   --> A_2  D_2  S_2  
     e( 31 - 31) =      6.87769  eV     1   --> B_2  D_4  S_4  
     e( 32 - 32) =      7.04479  eV     1   --> B_2  D_4  S_4  
     e( 33 - 33) =      7.08604  eV     1   --> A_1  D_1  S_1  
     e( 34 - 34) =      7.29077  eV     1   --> B_2  D_4  S_4  
     e( 35 - 35) =      7.41710  eV     1   --> B_1  D_3  S_3  
     e( 36 - 36) =      7.59710  eV     1   --> A_2  D_2  S_2  
     e( 37 - 37) =      7.61361  eV     1   --> A_1  D_1  S_1  
     e( 38 - 38) =      7.87319  eV     1   --> A_1  D_1  S_1  
     e( 39 - 39) =      7.99891  eV     1   --> A_1  D_1  S_1  
     e( 40 - 40) =      8.08294  eV     1   --> B_1  D_3  S_3  
     e( 41 - 41) =      8.16375  eV     1   --> A_2  D_2  S_2  
     e( 42 - 42) =      8.23620  eV     1   --> A_1  D_1  S_1  
     e( 43 - 43) =      8.38526  eV     1   --> B_2  D_4  S_4  
     e( 44 - 44) =      8.53174  eV     1   --> B_1  D_3  S_3  
     e( 45 - 45) =      8.54094  eV     1   --> A_1  D_1  S_1  
     e( 46 - 46) =      8.62175  eV     1   --> B_1  D_3  S_3  
     e( 47 - 47) =      8.69598  eV     1   --> B_2  D_4  S_4  
     e( 48 - 48) =      9.04556  eV     1   --> A_1  D_1  S_1  
     e( 49 - 49) =      9.45271  eV     1   --> B_2  D_4  S_4  
     e( 50 - 50) =      9.90245  eV     1   --> B_2  D_4  S_4  
     e( 51 - 51) =      9.95281  eV     1   --> A_2  D_2  S_2  
     e( 52 - 52) =     12.95444  eV     1   --> A_1  D_1  S_1  
     e( 53 - 53) =     13.18736  eV     1   --> A_1  D_1  S_1  
     e( 54 - 54) =     14.16972  eV     1   --> A_1  D_1  S_1  
     e( 55 - 55) =     14.44222  eV     1   --> B_2  D_4  S_4  
     e( 56 - 56) =     14.71888  eV     1   --> A_1  D_1  S_1  
     e( 57 - 57) =     14.90774  eV     1   --> B_1  D_3  S_3  
     e( 58 - 58) =     15.32449  eV     1   --> A_1  D_1  S_1  
     e( 59 - 59) =     15.96101  eV     1   --> B_2  D_4  S_4  
     e( 60 - 60) =     16.28072  eV     1   --> B_1  D_3  S_3  
     e( 61 - 61) =     16.38104  eV     1   --> B_2  D_4  S_4  
     e( 62 - 62) =     16.47190  eV     1   --> B_2  D_4  S_4  
     e( 63 - 63) =     16.58336  eV     1   --> A_1  D_1  S_1  
     e( 64 - 64) =     16.92851  eV     1   --> A_2  D_2  S_2  
     e( 65 - 65) =     17.50485  eV     1   --> A_1  D_1  S_1  
     e( 66 - 66) =     18.09508  eV     1   --> B_2  D_4  S_4  
     e( 67 - 67) =     18.21490  eV     1   --> A_1  D_1  S_1  
     e( 68 - 68) =     18.34778  eV     1   --> A_2  D_2  S_2  
     e( 69 - 69) =     18.42718  eV     1   --> B_1  D_3  S_3  
     e( 70 - 70) =     18.72630  eV     1   --> A_2  D_2  S_2  
     e( 71 - 71) =     19.16886  eV     1   --> B_2  D_4  S_4  
     e( 72 - 72) =     19.85176  eV     1   --> A_1  D_1  S_1  
     e( 73 - 73) =     20.45358  eV     1   --> B_1  D_3  S_3  
     e( 74 - 74) =     20.59907  eV     1   --> A_1  D_1  S_1  
     e( 75 - 75) =     21.44145  eV     1   --> A_1  D_1  S_1  
     e( 76 - 76) =     22.16555  eV     1   --> B_2  D_4  S_4  
     e( 77 - 77) =     22.40305  eV     1   --> B_2  D_4  S_4  
     e( 78 - 78) =     22.82073  eV     1   --> A_1  D_1  S_1  
     e( 79 - 79) =     23.29097  eV     1   --> B_1  D_3  S_3  
     e( 80 - 80) =     23.73665  eV     1   --> B_1  D_3  S_3  

 **************************************************************************

 **************************************************************************

                    xk=(   0.00000,   0.25000,   0.00000  )

     Band symmetry, C_2v (mm2)  point group:

     e(  1 -  1) =    -30.95391  eV     1   --> A_1  D_1  S_1  
     e(  2 -  2) =    -15.97939  eV     1   --> A_1  D_1  S_1  
     e(  3 -  3) =    -15.97419  eV     1   --> B_2  D_4  S_4  
     e(  4 -  4) =    -11.63175  eV     1   --> B_2  D_4  S_4  
     e(  5 -  5) =    -11.46745  eV     1   --> A_1  D_1  S_1  
     e(  6 -  6) =    -11.03515  eV     1   --> B_1  D_3  S_3  
     e(  7 -  7) =     -8.25936  eV     1   --> A_1  D_1  S_1  
     e(  8 -  8) =     -7.66308  eV     1   --> B_2  D_4  S_4  
     e(  9 -  9) =     -7.27464  eV     1   --> A_1  D_1  S_1  
     e( 10 - 10) =     -7.13440  eV     1   --> B_2  D_4  S_4  
     e( 11 - 11) =     -6.82528  eV     1   --> A_1  D_1  S_1  
     e( 12 - 12) =     -6.49646  eV     1   --> B_2  D_4  S_4  
     e( 13 - 13) =     -1.39942  eV     1   --> A_1  D_1  S_1  
     e( 14 - 14) =     -1.22207  eV     1   --> B_2  D_4  S_4  
     e( 15 - 15) =     -0.93665  eV     1   --> A_1  D_1  S_1  
     e( 16 - 16) =     -0.86400  eV     1   --> B_2  D_4  S_4  
     e( 17 - 17) =     -0.73708  eV     1   --> B_1  D_3  S_3  
     e( 18 - 18) =     -0.73268  eV     1   --> A_2  D_2  S_2  
     e( 19 - 19) =      4.02923  eV     1   --> A_1  D_1  S_1  
     e( 20 - 20) =      4.12294  eV     1   --> B_2  D_4  S_4  
     e( 21 - 21) =      4.69423  eV     1   --> A_2  D_2  S_2  
     e( 22 - 22) =      4.94865  eV     1   --> A_1  D_1  S_1  
     e( 23 - 23) =      4.97488  eV     1   --> B_1  D_3  S_3  
     e( 24 - 24) =      5.19321  eV     1   --> A_1  D_1  S_1  
     e( 25 - 25) =      5.78166  eV     1   --> A_1  D_1  S_1  
     e( 26 - 26) =      6.14407  eV     1   --> B_2  D_4  S_4  
     e( 27 - 27) =      6.27170  eV     1   --> A_2  D_2  S_2  
     e( 28 - 28) =      6.28040  eV     1   --> B_1  D_3  S_3  
     e( 29 - 29) =      6.67829  eV     1   --> B_2  D_4  S_4  
     e( 30 - 30) =      6.79334  eV     1   --> A_2  D_2  S_2  
     e( 31 - 31) =      6.84196  eV     1   --> B_2  D_4  S_4  
     e( 32 - 32) =      6.98854  eV     1   --> A_1  D_1  S_1  
     e( 33 - 33) =      7.00640  eV     1   --> B_2  D_4  S_4  
     e( 34 - 34) =      7.28445  eV     1   --> B_2  D_4  S_4  
     e( 35 - 35) =      7.38843  eV     1   --> B_1  D_3  S_3  
     e( 36 - 36) =      7.60811  eV     1   --> A_2  D_2  S_2  
     e( 37 - 37) =      7.61361  eV     1   --> A_1  D_1  S_1  
     e( 38 - 38) =      7.86122  eV     1   --> A_1  D_1  S_1  
     e( 39 - 39) =      8.00592  eV     1   --> A_1  D_1  S_1  
     e( 40 - 40) =      8.06105  eV     1   --> B_1  D_3  S_3  
     e( 41 - 41) =      8.21307  eV     1   --> A_2  D_2  S_2  
     e( 42 - 42) =      8.25526  eV     1   --> A_1  D_1  S_1  
     e( 43 - 43) =      8.49613  eV     1   --> B_2  D_4  S_4  
     e( 44 - 44) =      8.52787  eV     1   --> B_1  D_3  S_3  
     e( 45 - 45) =      8.58490  eV     1   --> A_1  D_1  S_1  
     e( 46 - 46) =      8.66012  eV     1   --> B_1  D_3  S_3  
     e( 47 - 47) =      8.70222  eV     1   --> B_2  D_4  S_4  
     e( 48 - 48) =      9.09114  eV     1   --> A_1  D_1  S_1  
     e( 49 - 49) =      9.53017  eV     1   --> B_2  D_4  S_4  
     e( 50 - 50) =      9.86032  eV     1   --> B_2  D_4  S_4  
     e( 51 - 51) =      9.91778  eV     1   --> A_2  D_2  S_2  
     e( 52 - 52) =     12.85348  eV     1   --> A_1  D_1  S_1  
     e( 53 - 53) =     13.35019  eV     1   --> A_1  D_1  S_1  
     e( 54 - 54) =     14.36260  eV     1   --> A_1  D_1  S_1  
     e( 55 - 55) =     14.63838  eV     1   --> B_2  D_4  S_4  
     e( 56 - 56) =     14.71901  eV     1   --> A_1  D_1  S_1  
     e( 57 - 57) =     14.89071  eV     1   --> B_1  D_3  S_3  
     e( 58 - 58) =     15.37088  eV     1   --> A_1  D_1  S_1  
     e( 59 - 59) =     16.04937  eV     1   --> B_2  D_4  S_4  
     e( 60 - 60) =     16.34370  eV     1   --> B_1  D_3  S_3  
     e( 61 - 61) =     16.39575  eV     1   --> B_2  D_4  S_4  
     e( 62 - 62) =     16.54406  eV     1   --> B_2  D_4  S_4  
     e( 63 - 63) =     16.58526  eV     1   --> A_1  D_1  S_1  
     e( 64 - 64) =     16.94279  eV     1   --> A_2  D_2  S_2  
     e( 65 - 65) =     17.46846  eV     1   --> A_1  D_1  S_1  
     e( 66 - 66) =     18.04629  eV     1   --> B_2  D_4  S_4  
     e( 67 - 67) =     18.19832  eV     1   --> A_1  D_1  S_1  
     e( 68 - 68) =     18.36931  eV     1   --> A_2  D_2  S_2  
     e( 69 - 69) =     18.49939  eV     1   --> B_1  D_3  S_3  
     e( 70 - 70) =     18.75462  eV     1   --> A_2  D_2  S_2  
     e( 71 - 71) =     19.40222  eV     1   --> B_2  D_4  S_4  
     e( 72 - 72) =     19.81585  eV     1   --> A_1  D_1  S_1  
     e( 73 - 73) =     20.39999  eV     1   --> B_1  D_3  S_3  
     e( 74 - 74) =     20.68258  eV     1   --> A_1  D_1  S_1  
     e( 75 - 75) =     21.42109  eV     1   --> A_1  D_1  S_1  
     e( 76 - 76) =     22.12470  eV     1   --> B_2  D_4  S_4  
     e( 77 - 77) =     22.36181  eV     1   --> B_2  D_4  S_4  
     e( 78 - 78) =     23.03122  eV     1   --> A_1  D_1  S_1  
     e( 79 - 79) =     23.37202  eV     1   --> B_1  D_3  S_3  
     e( 80 - 80) =     23.85544  eV     1   --> B_1  D_3  S_3  

 **************************************************************************

 **************************************************************************

                    xk=(   0.00000,   0.27500,   0.00000  )

     Band symmetry, C_2v (mm2)  point group:

     e(  1 -  1) =    -30.95250  eV     1   --> A_1  D_1  S_1  
     e(  2 -  2) =    -15.96806  eV     1   --> A_1  D_1  S_1  
     e(  3 -  3) =    -15.96294  eV     1   --> B_2  D_4  S_4  
     e(  4 -  4) =    -11.60651  eV     1   --> B_2  D_4  S_4  
     e(  5 -  5) =    -11.52342  eV     1   --> A_1  D_1  S_1  
     e(  6 -  6) =    -11.03320  eV     1   --> B_1  D_3  S_3  
     e(  7 -  7) =     -8.19508  eV     1   --> A_1  D_1  S_1  
     e(  8 -  8) =     -7.70505  eV     1   --> B_2  D_4  S_4  
     e(  9 -  9) =     -7.26686  eV     1   --> A_1  D_1  S_1  
     e( 10 - 10) =     -7.12713  eV     1   --> B_2  D_4  S_4  
     e( 11 - 11) =     -6.84570  eV     1   --> A_1  D_1  S_1  
     e( 12 - 12) =     -6.52489  eV     1   --> B_2  D_4  S_4  
     e( 13 - 13) =     -1.39863  eV     1   --> A_1  D_1  S_1  
     e( 14 - 14) =     -1.22497  eV     1   --> B_2  D_4  S_4  
     e( 15 - 15) =     -0.94959  eV     1   --> A_1  D_1  S_1  
     e( 16 - 16) =     -0.86974  eV     1   --> B_2  D_4  S_4  
     e( 17 - 17) =     -0.71754  eV     1   --> B_1  D_3  S_3  
     e( 18 - 18) =     -0.71277  eV     1   --> A_2  D_2  S_2  
     e( 19 - 19) =      3.92560  eV     1   --> A_1  D_1  S_1  
     e( 20 - 20) =      4.04375  eV     1   --> B_2  D_4  S_4  
     e( 21 - 21) =      4.73113  eV     1   --> A_2  D_2  S_2  
     e( 22 - 22) =      4.95226  eV     1   --> A_1  D_1  S_1  
     e( 23 - 23) =      4.98646  eV     1   --> B_1  D_3  S_3  
     e( 24 - 24) =      5.19990  eV     1   --> A_1  D_1  S_1  
     e( 25 - 25) =      5.79105  eV     1   --> A_1  D_1  S_1  
     e( 26 - 26) =      6.09546  eV     1   --> B_2  D_4  S_4  
     e( 27 - 27) =      6.18307  eV     1   --> A_2  D_2  S_2  
     e( 28 - 28) =      6.19521  eV     1   --> B_1  D_3  S_3  
     e( 29 - 29) =      6.66559  eV     1   --> B_2  D_4  S_4  
     e( 30 - 30) =      6.74650  eV     1   --> A_2  D_2  S_2  
     e( 31 - 31) =      6.82091  eV     1   --> B_2  D_4  S_4  
     e( 32 - 32) =      6.89368  eV     1   --> A_1  D_1  S_1  
     e( 33 - 33) =      6.97565  eV     1   --> B_2  D_4  S_4  
     e( 34 - 34) =      7.27765  eV     1   --> B_2  D_4  S_4  
     e( 35 - 35) =      7.35398  eV     1   --> B_1  D_3  S_3  
     e( 36 - 36) =      7.58517  eV     1   --> A_1  D_1  S_1  
     e( 37 - 37) =      7.61705  eV     1   --> A_2  D_2  S_2  
     e( 38 - 38) =      7.86010  eV     1   --> A_1  D_1  S_1  
     e( 39 - 39) =      8.02963  eV     1   --> A_1  D_1  S_1  
     e( 40 - 40) =      8.03888  eV     1   --> B_1  D_3  S_3  
     e( 41 - 41) =      8.25992  eV     1   --> A_2  D_2  S_2  
     e( 42 - 42) =      8.27656  eV     1   --> A_1  D_1  S_1  
     e( 43 - 43) =      8.52244  eV     1   --> B_1  D_3  S_3  
     e( 44 - 44) =      8.59560  eV     1   --> B_2  D_4  S_4  
     e( 45 - 45) =      8.63482  eV     1   --> A_1  D_1  S_1  
     e( 46 - 46) =      8.70235  eV     1   --> B_1  D_3  S_3  
     e( 47 - 47) =      8.71379  eV     1   --> B_2  D_4  S_4  
     e( 48 - 48) =      9.12746  eV     1   --> A_1  D_1  S_1  
     e( 49 - 49) =      9.59606  eV     1   --> B_2  D_4  S_4  
     e( 50 - 50) =      9.82057  eV     1   --> B_2  D_4  S_4  
     e( 51 - 51) =      9.88438  eV     1   --> A_2  D_2  S_2  
     e( 52 - 52) =     12.74254  eV     1   --> A_1  D_1  S_1  
     e( 53 - 53) =     13.51388  eV     1   --> A_1  D_1  S_1  
     e( 54 - 54) =     14.52800  eV     1   --> A_1  D_1  S_1  
     e( 55 - 55) =     14.74700  eV     1   --> A_1  D_1  S_1  
     e( 56 - 56) =     14.83789  eV     1   --> B_2  D_4  S_4  
     e( 57 - 57) =     14.87421  eV     1   --> B_1  D_3  S_3  
     e( 58 - 58) =     15.42892  eV     1   --> A_1  D_1  S_1  
     e( 59 - 59) =     16.05842  eV     1   --> B_2  D_4  S_4  
     e( 60 - 60) =     16.41376  eV     1   --> B_1  D_3  S_3  
     e( 61 - 61) =     16.43869  eV     1   --> B_2  D_4  S_4  
     e( 62 - 62) =     16.56728  eV     1   --> A_1  D_1  S_1  
     e( 63 - 63) =     16.69102  eV     1   --> B_2  D_4  S_4  
     e( 64 - 64) =     16.96221  eV     1   --> A_2  D_2  S_2  
     e( 65 - 65) =     17.41556  eV     1   --> A_1  D_1  S_1  
     e( 66 - 66) =     17.99723  eV     1   --> B_2  D_4  S_4  
     e( 67 - 67) =     18.24727  eV     1   --> A_1  D_1  S_1  
     e( 68 - 68) =     18.38335  eV     1   --> A_2  D_2  S_2  
     e( 69 - 69) =     18.56220  eV     1   --> B_1  D_3  S_3  
     e( 70 - 70) =     18.77718  eV     1   --> A_2  D_2  S_2  
     e( 71 - 71) =     19.64652  eV     1   --> B_2  D_4  S_4  
     e( 72 - 72) =     19.78804  eV     1   --> A_1  D_1  S_1  
     e( 73 - 73) =     20.33164  eV     1   --> B_1  D_3  S_3  
     e( 74 - 74) =     20.75793  eV     1   --> A_1  D_1  S_1  
     e( 75 - 75) =     21.38442  eV     1   --> A_1  D_1  S_1  
     e( 76 - 76) =     22.01635  eV     1   --> B_2  D_4  S_4  
     e( 77 - 77) =     22.36960  eV     1   --> B_2  D_4  S_4  
     e( 78 - 78) =     23.24626  eV     1   --> A_1  D_1  S_1  
     e( 79 - 79) =     23.40699  eV     1   --> B_1  D_3  S_3  
     e( 80 - 80) =     23.85739  eV     1   --> A_1  D_1  S_1  

 **************************************************************************

 **************************************************************************

                    xk=(   0.00000,   0.30000,   0.00000  )

     Band symmetry, C_2v (mm2)  point group:

     e(  1 -  1) =    -30.95113  eV     1   --> A_1  D_1  S_1  
     e(  2 -  2) =    -15.95695  eV     1   --> A_1  D_1  S_1  
     e(  3 -  3) =    -15.95192  eV     1   --> B_2  D_4  S_4  
     e(  4 -  4) =    -11.58135  eV     1   --> B_2  D_4  S_4  
     e(  5 -  5) =    -11.57622  eV     1   --> A_1  D_1  S_1  
     e(  6 -  6) =    -11.03131  eV     1   --> B_1  D_3  S_3  
     e(  7 -  7) =     -8.13241  eV     1   --> A_1  D_1  S_1  
     e(  8 -  8) =     -7.74862  eV     1   --> B_2  D_4  S_4  
     e(  9 -  9) =     -7.26362  eV     1   --> A_1  D_1  S_1  
     e( 10 - 10) =     -7.11778  eV     1   --> B_2  D_4  S_4  
     e( 11 - 11) =     -6.86318  eV     1   --> A_1  D_1  S_1  
     e( 12 - 12) =     -6.55251  eV     1   --> B_2  D_4  S_4  
     e( 13 - 13) =     -1.39714  eV     1   --> A_1  D_1  S_1  
     e( 14 - 14) =     -1.22600  eV     1   --> B_2  D_4  S_4  
     e( 15 - 15) =     -0.96242  eV     1   --> A_1  D_1  S_1  
     e( 16 - 16) =     -0.87665  eV     1   --> B_2  D_4  S_4  
     e( 17 - 17) =     -0.69829  eV     1   --> B_1  D_3  S_3  
     e( 18 - 18) =     -0.69314  eV     1   --> A_2  D_2  S_2  
     e( 19 - 19) =      3.82734  eV     1   --> A_1  D_1  S_1  
     e( 20 - 20) =      3.96396  eV     1   --> B_2  D_4  S_4  
     e( 21 - 21) =      4.77033  eV     1   --> A_2  D_2  S_2  
     e( 22 - 22) =      4.95296  eV     1   --> A_1  D_1  S_1  
     e( 23 - 23) =      4.99924  eV     1   --> B_1  D_3  S_3  
     e( 24 - 24) =      5.20506  eV     1   --> A_1  D_1  S_1  
     e( 25 - 25) =      5.80906  eV     1   --> A_1  D_1  S_1  
     e( 26 - 26) =      6.04953  eV     1   --> B_2  D_4  S_4  
     e( 27 - 27) =      6.09705  eV     1   --> A_2  D_2  S_2  
     e( 28 - 28) =      6.11432  eV     1   --> B_1  D_3  S_3  
     e( 29 - 29) =      6.64253  eV     1   --> B_2  D_4  S_4  
     e( 30 - 30) =      6.70008  eV     1   --> A_2  D_2  S_2  
     e( 31 - 31) =      6.80179  eV     1   --> A_1  D_1  S_1  
     e( 32 - 32) =      6.82318  eV     1   --> B_2  D_4  S_4  
     e( 33 - 33) =      6.94718  eV     1   --> B_2  D_4  S_4  
     e( 34 - 34) =      7.27081  eV     1   --> B_2  D_4  S_4  
     e( 35 - 35) =      7.31545  eV     1   --> B_1  D_3  S_3  
     e( 36 - 36) =      7.54111  eV     1   --> A_1  D_1  S_1  
     e( 37 - 37) =      7.62440  eV     1   --> A_2  D_2  S_2  
     e( 38 - 38) =      7.85615  eV     1   --> A_1  D_1  S_1  
     e( 39 - 39) =      8.01855  eV     1   --> B_1  D_3  S_3  
     e( 40 - 40) =      8.07205  eV     1   --> A_1  D_1  S_1  
     e( 41 - 41) =      8.29939  eV     1   --> A_1  D_1  S_1  
     e( 42 - 42) =      8.30340  eV     1   --> A_2  D_2  S_2  
     e( 43 - 43) =      8.51648  eV     1   --> B_1  D_3  S_3  
     e( 44 - 44) =      8.66162  eV     1   --> B_2  D_4  S_4  
     e( 45 - 45) =      8.68931  eV     1   --> A_1  D_1  S_1  
     e( 46 - 46) =      8.74500  eV     1   --> B_1  D_3  S_3  
     e( 47 - 47) =      8.75159  eV     1   --> B_2  D_4  S_4  
     e( 48 - 48) =      9.15471  eV     1   --> A_1  D_1  S_1  
     e( 49 - 49) =      9.65047  eV     1   --> B_2  D_4  S_4  
     e( 50 - 50) =      9.78426  eV     1   --> B_2  D_4  S_4  
     e( 51 - 51) =      9.85326  eV     1   --> A_2  D_2  S_2  
     e( 52 - 52) =     12.62562  eV     1   --> A_1  D_1  S_1  
     e( 53 - 53) =     13.67461  eV     1   --> A_1  D_1  S_1  
     e( 54 - 54) =     14.59976  eV     1   --> A_1  D_1  S_1  
     e( 55 - 55) =     14.85861  eV     1   --> B_1  D_3  S_3  
     e( 56 - 56) =     14.86830  eV     1   --> A_1  D_1  S_1  
     e( 57 - 57) =     15.03458  eV     1   --> B_2  D_4  S_4  
     e( 58 - 58) =     15.48809  eV     1   --> A_1  D_1  S_1  
     e( 59 - 59) =     16.01287  eV     1   --> B_2  D_4  S_4  
     e( 60 - 60) =     16.48976  eV     1   --> B_1  D_3  S_3  
     e( 61 - 61) =     16.51825  eV     1   --> B_2  D_4  S_4  
     e( 62 - 62) =     16.53579  eV     1   --> A_1  D_1  S_1  
     e( 63 - 63) =     16.87853  eV     1   --> B_2  D_4  S_4  
     e( 64 - 64) =     16.98580  eV     1   --> A_2  D_2  S_2  
     e( 65 - 65) =     17.35371  eV     1   --> A_1  D_1  S_1  
     e( 66 - 66) =     17.94871  eV     1   --> B_2  D_4  S_4  
     e( 67 - 67) =     18.35010  eV     1   --> A_1  D_1  S_1  
     e( 68 - 68) =     18.39299  eV     1   --> A_2  D_2  S_2  
     e( 69 - 69) =     18.61246  eV     1   --> B_1  D_3  S_3  
     e( 70 - 70) =     18.79072  eV     1   --> A_2  D_2  S_2  
     e( 71 - 71) =     19.77327  eV     1   --> A_1  D_1  S_1  
     e( 72 - 72) =     19.89824  eV     1   --> B_2  D_4  S_4  
     e( 73 - 73) =     20.25402  eV     1   --> B_1  D_3  S_3  
     e( 74 - 74) =     20.82328  eV     1   --> A_1  D_1  S_1  
     e( 75 - 75) =     21.33912  eV     1   --> A_1  D_1  S_1  
     e( 76 - 76) =     21.88199  eV     1   --> B_2  D_4  S_4  
     e( 77 - 77) =     22.39694  eV     1   --> B_2  D_4  S_4  
     e( 78 - 78) =     23.43836  eV     1   --> B_1  D_3  S_3  
     e( 79 - 79) =     23.45114  eV     1   --> A_1  D_1  S_1  
     e( 80 - 80) =     23.81686  eV     1   --> A_1  D_1  S_1  

 **************************************************************************

 **************************************************************************

                    xk=(   0.00000,   0.32500,   0.00000  )

     Band symmetry, C_2v (mm2)  point group:

     e(  1 -  1) =    -30.94982  eV     1   --> A_1  D_1  S_1  
     e(  2 -  2) =    -15.94632  eV     1   --> A_1  D_1  S_1  
     e(  3 -  3) =    -15.94139  eV     1   --> B_2  D_4  S_4  
     e(  4 -  4) =    -11.62488  eV     1   --> A_1  D_1  S_1  
     e(  5 -  5) =    -11.55695  eV     1   --> B_2  D_4  S_4  
     e(  6 -  6) =    -11.02950  eV     1   --> B_1  D_3  S_3  
     e(  7 -  7) =     -8.07242  eV     1   --> A_1  D_1  S_1  
     e(  8 -  8) =     -7.79200  eV     1   --> B_2  D_4  S_4  
     e(  9 -  9) =     -7.26520  eV     1   --> A_1  D_1  S_1  
     e( 10 - 10) =     -7.10724  eV     1   --> B_2  D_4  S_4  
     e( 11 - 11) =     -6.87715  eV     1   --> A_1  D_1  S_1  
     e( 12 - 12) =     -6.57867  eV     1   --> B_2  D_4  S_4  
     e( 13 - 13) =     -1.39506  eV     1   --> A_1  D_1  S_1  
     e( 14 - 14) =     -1.22521  eV     1   --> B_2  D_4  S_4  
     e( 15 - 15) =     -0.97481  eV     1   --> A_1  D_1  S_1  
     e( 16 - 16) =     -0.88457  eV     1   --> B_2  D_4  S_4  
     e( 17 - 17) =     -0.67980  eV     1   --> B_1  D_3  S_3  
     e( 18 - 18) =     -0.67430  eV     1   --> A_2  D_2  S_2  
     e( 19 - 19) =      3.73633  eV     1   --> A_1  D_1  S_1  
     e( 20 - 20) =      3.88632  eV     1   --> B_2  D_4  S_4  
     e( 21 - 21) =      4.81126  eV     1   --> A_2  D_2  S_2  
     e( 22 - 22) =      4.95100  eV     1   --> A_1  D_1  S_1  
     e( 23 - 23) =      5.01314  eV     1   --> B_1  D_3  S_3  
     e( 24 - 24) =      5.20913  eV     1   --> A_1  D_1  S_1  
     e( 25 - 25) =      5.83522  eV     1   --> A_1  D_1  S_1  
     e( 26 - 26) =      6.00718  eV     1   --> B_2  D_4  S_4  
     e( 27 - 27) =      6.01447  eV     1   --> A_2  D_2  S_2  
     e( 28 - 28) =      6.03869  eV     1   --> B_1  D_3  S_3  
     e( 29 - 29) =      6.61375  eV     1   --> B_2  D_4  S_4  
     e( 30 - 30) =      6.65533  eV     1   --> A_2  D_2  S_2  
     e( 31 - 31) =      6.71308  eV     1   --> A_1  D_1  S_1  
     e( 32 - 32) =      6.84369  eV     1   --> B_2  D_4  S_4  
     e( 33 - 33) =      6.91886  eV     1   --> B_2  D_4  S_4  
     e( 34 - 34) =      7.26414  eV     1   --> B_2  D_4  S_4  
     e( 35 - 35) =      7.27485  eV     1   --> B_1  D_3  S_3  
     e( 36 - 36) =      7.49236  eV     1   --> A_1  D_1  S_1  
     e( 37 - 37) =      7.63052  eV     1   --> A_2  D_2  S_2  
     e( 38 - 38) =      7.84604  eV     1   --> A_1  D_1  S_1  
     e( 39 - 39) =      8.00110  eV     1   --> B_1  D_3  S_3  
     e( 40 - 40) =      8.12522  eV     1   --> A_1  D_1  S_1  
     e( 41 - 41) =      8.32435  eV     1   --> A_1  D_1  S_1  
     e( 42 - 42) =      8.34291  eV     1   --> A_2  D_2  S_2  
     e( 43 - 43) =      8.51051  eV     1   --> B_1  D_3  S_3  
     e( 44 - 44) =      8.68172  eV     1   --> B_2  D_4  S_4  
     e( 45 - 45) =      8.74660  eV     1   --> A_1  D_1  S_1  
     e( 46 - 46) =      8.78586  eV     1   --> B_1  D_3  S_3  
     e( 47 - 47) =      8.82692  eV     1   --> B_2  D_4  S_4  
     e( 48 - 48) =      9.17330  eV     1   --> A_1  D_1  S_1  
     e( 49 - 49) =      9.69267  eV     1   --> B_2  D_4  S_4  
     e( 50 - 50) =      9.75341  eV     1   --> B_2  D_4  S_4  
     e( 51 - 51) =      9.82500  eV     1   --> A_2  D_2  S_2  
     e( 52 - 52) =     12.50683  eV     1   --> A_1  D_1  S_1  
     e( 53 - 53) =     13.82888  eV     1   --> A_1  D_1  S_1  
     e( 54 - 54) =     14.61170  eV     1   --> A_1  D_1  S_1  
     e( 55 - 55) =     14.84421  eV     1   --> B_1  D_3  S_3  
     e( 56 - 56) =     15.04294  eV     1   --> A_1  D_1  S_1  
     e( 57 - 57) =     15.22222  eV     1   --> B_2  D_4  S_4  
     e( 58 - 58) =     15.54393  eV     1   --> A_1  D_1  S_1  
     e( 59 - 59) =     15.94834  eV     1   --> B_2  D_4  S_4  
     e( 60 - 60) =     16.49816  eV     1   --> A_1  D_1  S_1  
     e( 61 - 61) =     16.57011  eV     1   --> B_1  D_3  S_3  
     e( 62 - 62) =     16.61558  eV     1   --> B_2  D_4  S_4  
     e( 63 - 63) =     17.01237  eV     1   --> A_2  D_2  S_2  
     e( 64 - 64) =     17.08431  eV     1   --> B_2  D_4  S_4  
     e( 65 - 65) =     17.29016  eV     1   --> A_1  D_1  S_1  
     e( 66 - 66) =     17.90407  eV     1   --> B_2  D_4  S_4  
     e( 67 - 67) =     18.40052  eV     1   --> A_2  D_2  S_2  
     e( 68 - 68) =     18.49050  eV     1   --> A_1  D_1  S_1  
     e( 69 - 69) =     18.64738  eV     1   --> B_1  D_3  S_3  
     e( 70 - 70) =     18.79393  eV     1   --> A_2  D_2  S_2  
     e( 71 - 71) =     19.77855  eV     1   --> A_1  D_1  S_1  
     e( 72 - 72) =     20.15326  eV     1   --> B_2  D_4  S_4  
     e( 73 - 73) =     20.17400  eV     1   --> B_1  D_3  S_3  
     e( 74 - 74) =     20.87777  eV     1   --> A_1  D_1  S_1  
     e( 75 - 75) =     21.29137  eV     1   --> A_1  D_1  S_1  
     e( 76 - 76) =     21.74847  eV     1   --> B_2  D_4  S_4  
     e( 77 - 77) =     22.42785  eV     1   --> B_2  D_4  S_4  
     e( 78 - 78) =     23.47813  eV     1   --> B_1  D_3  S_3  
     e( 79 - 79) =     23.60442  eV     1   --> A_1  D_1  S_1  
     e( 80 - 80) =     23.77322  eV     1   --> A_1  D_1  S_1  

 **************************************************************************

 **************************************************************************

                    xk=(   0.00000,   0.35000,   0.00000  )

     Band symmetry, C_2v (mm2)  point group:

     e(  1 -  1) =    -30.94861  eV     1   --> A_1  D_1  S_1  
     e(  2 -  2) =    -15.93647  eV     1   --> A_1  D_1  S_1  
     e(  3 -  3) =    -15.93162  eV     1   --> B_2  D_4  S_4  
[...]
     e( 48 - 48) =     10.14272  eV     1   --> A''            
     e( 49 - 49) =     10.24584  eV     1   --> A''            
     e( 50 - 50) =     11.82996  eV     1   --> A'             
     e( 51 - 51) =     11.90716  eV     1   --> A''            
     e( 52 - 52) =     12.62630  eV     1   --> A'             
     e( 53 - 53) =     13.18036  eV     1   --> A'             
     e( 54 - 54) =     13.26562  eV     1   --> A'             
     e( 55 - 55) =     14.60903  eV     1   --> A'             
     e( 56 - 56) =     15.48978  eV     1   --> A''            
     e( 57 - 57) =     15.62969  eV     1   --> A'             
     e( 58 - 58) =     15.63690  eV     1   --> A''            
     e( 59 - 59) =     15.90660  eV     1   --> A'             
     e( 60 - 60) =     15.95701  eV     1   --> A''            
     e( 61 - 61) =     16.94359  eV     1   --> A''            
     e( 62 - 62) =     17.31880  eV     1   --> A''            
     e( 63 - 63) =     17.36185  eV     1   --> A'             
     e( 64 - 64) =     17.79078  eV     1   --> A'             
     e( 65 - 65) =     17.89962  eV     1   --> A''            
     e( 66 - 66) =     18.17261  eV     1   --> A'             
     e( 67 - 67) =     18.97049  eV     1   --> A'             
     e( 68 - 68) =     19.29613  eV     1   --> A'             
     e( 69 - 69) =     19.36645  eV     1   --> A''            
     e( 70 - 70) =     19.62034  eV     1   --> A'             
     e( 71 - 71) =     20.36517  eV     1   --> A''            
     e( 72 - 72) =     20.53093  eV     1   --> A'             
     e( 73 - 73) =     20.92841  eV     1   --> A'             
     e( 74 - 74) =     21.17616  eV     1   --> A''            
     e( 75 - 75) =     21.32538  eV     1   --> A'             
     e( 76 - 76) =     21.79649  eV     1   --> A'             
     e( 77 - 77) =     22.70052  eV     1   --> A''            
     e( 78 - 78) =     22.76364  eV     1   --> A''            
     e( 79 - 79) =     23.04827  eV     1   --> A'             
     e( 80 - 80) =     23.23803  eV     1   --> A'             

 **************************************************************************

 **************************************************************************

                    xk=(   0.45000,   0.45000,   0.00000  )

     Band symmetry, C_s (m)     point group:

     e(  1 -  1) =    -30.92829  eV     1   --> A'             
     e(  2 -  2) =    -15.79945  eV     1   --> A'             
     e(  3 -  3) =    -15.79449  eV     1   --> A''            
     e(  4 -  4) =    -11.71582  eV     1   --> A'             
     e(  5 -  5) =    -11.71235  eV     1   --> A'             
     e(  6 -  6) =    -11.19300  eV     1   --> A''            
     e(  7 -  7) =     -7.64218  eV     1   --> A''            
     e(  8 -  8) =     -7.63059  eV     1   --> A''            
     e(  9 -  9) =     -7.00364  eV     1   --> A'             
     e( 10 - 10) =     -6.96080  eV     1   --> A'             
     e( 11 - 11) =     -6.73517  eV     1   --> A'             
     e( 12 - 12) =     -6.40311  eV     1   --> A''            
     e( 13 - 13) =     -1.73917  eV     1   --> A'             
     e( 14 - 14) =     -1.72470  eV     1   --> A''            
     e( 15 - 15) =     -1.70294  eV     1   --> A'             
     e( 16 - 16) =     -1.67950  eV     1   --> A''            
     e( 17 - 17) =     -1.39554  eV     1   --> A'             
     e( 18 - 18) =     -1.21376  eV     1   --> A''            
     e( 19 - 19) =      2.18018  eV     1   --> A'             
     e( 20 - 20) =      2.83755  eV     1   --> A''            
     e( 21 - 21) =      4.09572  eV     1   --> A'             
     e( 22 - 22) =      4.12594  eV     1   --> A'             
     e( 23 - 23) =      4.18311  eV     1   --> A''            
     e( 24 - 24) =      4.91352  eV     1   --> A''            
     e( 25 - 25) =      5.14659  eV     1   --> A'             
     e( 26 - 26) =      5.62868  eV     1   --> A'             
     e( 27 - 27) =      5.63828  eV     1   --> A'             
     e( 28 - 28) =      6.03015  eV     1   --> A''            
     e( 29 - 29) =      6.03089  eV     1   --> A''            
     e( 30 - 30) =      6.61442  eV     1   --> A''            
     e( 31 - 31) =      7.04468  eV     1   --> A''            
     e( 32 - 32) =      7.05265  eV     1   --> A''            
     e( 33 - 33) =      7.28832  eV     1   --> A'             
     e( 34 - 34) =      8.00369  eV     1   --> A'             
     e( 35 - 35) =      8.12025  eV     1   --> A'             
     e( 36 - 36) =      8.22911  eV     1   --> A'             
     e( 37 - 37) =      8.34032  eV     1   --> A'             
     e( 38 - 38) =      8.58070  eV     1   --> A''            
     e( 39 - 39) =      8.59505  eV     1   --> A'             
     e( 40 - 40) =      8.68385  eV     1   --> A'             
     e( 41 - 41) =      8.79277  eV     1   --> A''            
     e( 42 - 42) =      8.84356  eV     1   --> A'             
     e( 43 - 43) =      8.86456  eV     1   --> A'             
     e( 44 - 44) =      8.93073  eV     1   --> A''            
     e( 45 - 45) =      8.97170  eV     1   --> A''            
     e( 46 - 46) =      9.04837  eV     1   --> A''            
     e( 47 - 47) =      9.48306  eV     1   --> A'             
     e( 48 - 48) =     10.20416  eV     1   --> A''            
     e( 49 - 49) =     10.25264  eV     1   --> A''            
     e( 50 - 50) =     11.94283  eV     1   --> A'             
     e( 51 - 51) =     12.01582  eV     1   --> A''            
     e( 52 - 52) =     12.64027  eV     1   --> A'             
     e( 53 - 53) =     13.16298  eV     1   --> A'             
     e( 54 - 54) =     13.21491  eV     1   --> A'             
     e( 55 - 55) =     14.49851  eV     1   --> A'             
     e( 56 - 56) =     15.45992  eV     1   --> A''            
     e( 57 - 57) =     15.53783  eV     1   --> A''            
     e( 58 - 58) =     15.73020  eV     1   --> A'             
     e( 59 - 59) =     15.82363  eV     1   --> A'             
     e( 60 - 60) =     15.85663  eV     1   --> A''            
     e( 61 - 61) =     17.09411  eV     1   --> A''            
     e( 62 - 62) =     17.30461  eV     1   --> A''            
     e( 63 - 63) =     17.46416  eV     1   --> A'             
     e( 64 - 64) =     17.81259  eV     1   --> A''            
     e( 65 - 65) =     17.84977  eV     1   --> A'             
     e( 66 - 66) =     18.07869  eV     1   --> A'             
     e( 67 - 67) =     18.96162  eV     1   --> A'             
     e( 68 - 68) =     19.62805  eV     1   --> A'             
     e( 69 - 69) =     19.81335  eV     1   --> A''            
     e( 70 - 70) =     19.95396  eV     1   --> A'             
     e( 71 - 71) =     20.29301  eV     1   --> A''            
     e( 72 - 72) =     20.66811  eV     1   --> A'             
     e( 73 - 73) =     20.83561  eV     1   --> A'             
     e( 74 - 74) =     21.28278  eV     1   --> A'             
     e( 75 - 75) =     21.50264  eV     1   --> A''            
     e( 76 - 76) =     21.66314  eV     1   --> A'             
     e( 77 - 77) =     22.36761  eV     1   --> A''            
     e( 78 - 78) =     22.91523  eV     1   --> A''            
     e( 79 - 79) =     22.92357  eV     1   --> A'             
     e( 80 - 80) =     23.01075  eV     1   --> A'             

 **************************************************************************

 **************************************************************************

                    xk=(   0.47500,   0.47500,   0.00000  )

     Band symmetry, C_s (m)     point group:

     e(  1 -  1) =    -30.92765  eV     1   --> A'             
     e(  2 -  2) =    -15.79522  eV     1   --> A'             
     e(  3 -  3) =    -15.79025  eV     1   --> A''            
     e(  4 -  4) =    -11.72398  eV     1   --> A'             
     e(  5 -  5) =    -11.72302  eV     1   --> A'             
     e(  6 -  6) =    -11.18125  eV     1   --> A''            
     e(  7 -  7) =     -7.64281  eV     1   --> A''            
     e(  8 -  8) =     -7.63987  eV     1   --> A''            
     e(  9 -  9) =     -6.96622  eV     1   --> A'             
     e( 10 - 10) =     -6.95505  eV     1   --> A'             
     e( 11 - 11) =     -6.72928  eV     1   --> A'             
     e( 12 - 12) =     -6.39191  eV     1   --> A''            
     e( 13 - 13) =     -1.75343  eV     1   --> A'             
     e( 14 - 14) =     -1.74412  eV     1   --> A'             
     e( 15 - 15) =     -1.73966  eV     1   --> A''            
     e( 16 - 16) =     -1.72809  eV     1   --> A''            
     e( 17 - 17) =     -1.40382  eV     1   --> A'             
     e( 18 - 18) =     -1.21441  eV     1   --> A''            
     e( 19 - 19) =      2.12975  eV     1   --> A'             
     e( 20 - 20) =      2.79146  eV     1   --> A''            
     e( 21 - 21) =      4.06675  eV     1   --> A'             
     e( 22 - 22) =      4.11328  eV     1   --> A'             
     e( 23 - 23) =      4.17069  eV     1   --> A''            
     e( 24 - 24) =      4.91136  eV     1   --> A''            
     e( 25 - 25) =      5.14700  eV     1   --> A'             
     e( 26 - 26) =      5.63172  eV     1   --> A'             
     e( 27 - 27) =      5.63398  eV     1   --> A'             
     e( 28 - 28) =      6.01228  eV     1   --> A''            
     e( 29 - 29) =      6.01283  eV     1   --> A''            
     e( 30 - 30) =      6.62883  eV     1   --> A''            
     e( 31 - 31) =      7.05358  eV     1   --> A''            
     e( 32 - 32) =      7.05548  eV     1   --> A''            
     e( 33 - 33) =      7.28785  eV     1   --> A'             
     e( 34 - 34) =      8.05697  eV     1   --> A'             
     e( 35 - 35) =      8.17199  eV     1   --> A'             
     e( 36 - 36) =      8.20448  eV     1   --> A'             
     e( 37 - 37) =      8.33755  eV     1   --> A'             
     e( 38 - 38) =      8.60392  eV     1   --> A'             
     e( 39 - 39) =      8.64444  eV     1   --> A''            
     e( 40 - 40) =      8.68832  eV     1   --> A'             
     e( 41 - 41) =      8.85306  eV     1   --> A''            
     e( 42 - 42) =      8.87239  eV     1   --> A'             
     e( 43 - 43) =      8.87794  eV     1   --> A'             
     e( 44 - 44) =      8.94563  eV     1   --> A''            
     e( 45 - 45) =      8.98050  eV     1   --> A''            
     e( 46 - 46) =      9.01194  eV     1   --> A''            
     e( 47 - 47) =      9.50500  eV     1   --> A'             
     e( 48 - 48) =     10.24417  eV     1   --> A''            
     e( 49 - 49) =     10.25670  eV     1   --> A''            
     e( 50 - 50) =     12.01344  eV     1   --> A'             
     e( 51 - 51) =     12.08444  eV     1   --> A''            
     e( 52 - 52) =     12.65153  eV     1   --> A'             
     e( 53 - 53) =     13.16791  eV     1   --> A'             
     e( 54 - 54) =     13.18404  eV     1   --> A'             
     e( 55 - 55) =     14.41187  eV     1   --> A'             
     e( 56 - 56) =     15.45183  eV     1   --> A''            
     e( 57 - 57) =     15.47406  eV     1   --> A''            
     e( 58 - 58) =     15.76736  eV     1   --> A'             
     e( 59 - 59) =     15.78492  eV     1   --> A''            
     e( 60 - 60) =     15.79527  eV     1   --> A'             
     e( 61 - 61) =     17.22730  eV     1   --> A''            
     e( 62 - 62) =     17.29440  eV     1   --> A''            
     e( 63 - 63) =     17.56381  eV     1   --> A'             
     e( 64 - 64) =     17.71704  eV     1   --> A''            
     e( 65 - 65) =     17.89217  eV     1   --> A'             
     e( 66 - 66) =     17.96751  eV     1   --> A'             
     e( 67 - 67) =     18.95541  eV     1   --> A'             
     e( 68 - 68) =     19.93459  eV     1   --> A'             
     e( 69 - 69) =     20.17563  eV     1   --> A''            
     e( 70 - 70) =     20.23259  eV     1   --> A'             
     e( 71 - 71) =     20.23612  eV     1   --> A''            
     e( 72 - 72) =     20.65455  eV     1   --> A'             
     e( 73 - 73) =     20.90020  eV     1   --> A'             
     e( 74 - 74) =     21.25303  eV     1   --> A'             
     e( 75 - 75) =     21.41011  eV     1   --> A'             
     e( 76 - 76) =     21.79855  eV     1   --> A''            
     e( 77 - 77) =     22.07086  eV     1   --> A''            
     e( 78 - 78) =     22.82131  eV     1   --> A'             
     e( 79 - 79) =     22.91807  eV     1   --> A'             
     e( 80 - 80) =     22.93866  eV     1   --> A'             

 **************************************************************************

 **************************************************************************

                    xk=(   0.50000,   0.50000,   0.00000  )

     point group D_2h (mmm) 
     there are  8 classes
     the character table:

       E     C2    C2'   C2''  i     s_v   s_v'  s_v''
A_g    1.00  1.00  1.00  1.00  1.00  1.00  1.00  1.00
B_1g   1.00  1.00 -1.00 -1.00  1.00  1.00 -1.00 -1.00
B_2g   1.00 -1.00  1.00 -1.00  1.00 -1.00  1.00 -1.00
B_3g   1.00 -1.00 -1.00  1.00  1.00 -1.00 -1.00  1.00
A_u    1.00  1.00  1.00  1.00 -1.00 -1.00 -1.00 -1.00
B_1u   1.00  1.00 -1.00 -1.00 -1.00 -1.00  1.00  1.00
B_2u   1.00 -1.00  1.00 -1.00 -1.00  1.00 -1.00  1.00
B_3u   1.00 -1.00 -1.00  1.00 -1.00  1.00  1.00 -1.00

     the symmetry operations in each class and the name of the first element:

     E        1
                                                                 
     C2       2
                                                                 
     C2'      4
                                                                 
     C2''     3
                                                                 
     i        5
                                                                 
     s_v      6
                                                                 
     s_v'     8
                                                                 
     s_v''    7
                                                                 

     Band symmetry, D_2h (mmm)  point group:

     e(  1 -  1) =    -30.92743  eV     1   --> B_1g           
     e(  2 -  2) =    -15.79380  eV     1   --> B_1g           
     e(  3 -  3) =    -15.78883  eV     1   --> A_u            
     e(  4 -  4) =    -11.72684  eV     1   --> B_3u           
     e(  5 -  5) =    -11.72646  eV     1   --> B_2u           
     e(  6 -  6) =    -11.17730  eV     1   --> A_u            
     e(  7 -  7) =     -7.64305  eV     1   --> B_3g           
     e(  8 -  8) =     -7.64292  eV     1   --> B_2g           
     e(  9 -  9) =     -6.95342  eV     1   --> B_2u           
     e( 10 - 10) =     -6.95287  eV     1   --> B_3u           
     e( 11 - 11) =     -6.72762  eV     1   --> A_g            
     e( 12 - 12) =     -6.38800  eV     1   --> B_1u           
     e( 13 - 14) =     -1.75825  eV     2   --> B_2u           
     e( 13 - 14) =     -1.75825  eV     2   --> B_3u           
     e( 15 - 16) =     -1.74472  eV     2   --> B_2g           
     e( 15 - 16) =     -1.74472  eV     2   --> B_3g           
     e( 17 - 17) =     -1.40662  eV     1   --> B_1g           
     e( 18 - 18) =     -1.21462  eV     1   --> A_u            
     e( 19 - 19) =      2.11278  eV     1   --> A_g            
     e( 20 - 20) =      2.77596  eV     1   --> B_1u           
     e( 21 - 21) =      4.05719  eV     1   --> B_1g           
     e( 22 - 22) =      4.10904  eV     1   --> A_g            
     e( 23 - 23) =      4.16652  eV     1   --> B_1u           
     e( 24 - 24) =      4.91077  eV     1   --> A_u            
     e( 25 - 25) =      5.14729  eV     1   --> A_g            
     e( 26 - 26) =      5.63249  eV     1   --> B_2u           
     e( 27 - 27) =      5.63259  eV     1   --> B_3u           
     e( 28 - 28) =      6.00625  eV     1   --> B_3g           
     e( 29 - 29) =      6.00678  eV     1   --> B_2g           
     e( 30 - 30) =      6.63384  eV     1   --> B_1u           
     e( 31 - 32) =      7.05643  eV     2   --> B_2g           
     e( 31 - 32) =      7.05643  eV     2   --> B_3g           
     e( 33 - 33) =      7.28764  eV     1   --> A_g            
     e( 34 - 34) =      8.08113  eV     1   --> B_1g           
     e( 35 - 36) =      8.19003  eV     2   --> B_2u           
     e( 35 - 36) =      8.19003  eV     2   --> B_3u           
     e( 37 - 37) =      8.33656  eV     1   --> B_1g           
     e( 38 - 38) =      8.60692  eV     1   --> B_1g           
     e( 39 - 39) =      8.66648  eV     1   --> A_u            
     e( 40 - 40) =      8.68987  eV     1   --> A_g            
     e( 41 - 41) =      8.87927  eV     1   --> B_1u           
     e( 42 - 42) =      8.88207  eV     1   --> B_3u           
     e( 43 - 43) =      8.88255  eV     1   --> B_2u           
     e( 44 - 44) =      8.96125  eV     1   --> A_u            
     e( 45 - 46) =      8.98306  eV     2   --> B_2g           
     e( 45 - 46) =      8.98306  eV     2   --> B_3g           
     e( 47 - 47) =      9.51162  eV     1   --> A_g            
     e( 48 - 49) =     10.25803  eV     2   --> B_2g           
     e( 48 - 49) =     10.25803  eV     2   --> B_3g           
     e( 50 - 50) =     12.03750  eV     1   --> A_g            
     e( 51 - 51) =     12.10799  eV     1   --> B_1u           
     e( 52 - 52) =     12.65548  eV     1   --> A_g            
     e( 53 - 53) =     13.17358  eV     1   --> B_3u           
     e( 54 - 54) =     13.17373  eV     1   --> B_2u           
     e( 55 - 55) =     14.37838  eV     1   --> B_1g           
     e( 56 - 56) =     15.45191  eV     1   --> B_2g           
     e( 57 - 57) =     15.45208  eV     1   --> B_3g           
     e( 58 - 58) =     15.74920  eV     1   --> A_g            
     e( 59 - 59) =     15.75790  eV     1   --> B_1u           
     e( 60 - 60) =     15.81601  eV     1   --> B_1g           
     e( 61 - 62) =     17.29073  eV     2   --> B_2g           
     e( 61 - 62) =     17.29073  eV     2   --> B_3g           
     e( 63 - 63) =     17.61693  eV     1   --> B_1g           
     e( 64 - 64) =     17.66604  eV     1   --> A_u            
     e( 65 - 65) =     17.90806  eV     1   --> B_3u           
     e( 66 - 66) =     17.90855  eV     1   --> B_2u           
     e( 67 - 67) =     18.95321  eV     1   --> A_g            
     e( 68 - 68) =     20.07328  eV     1   --> A_g            
     e( 69 - 69) =     20.21512  eV     1   --> B_1u           
     e( 70 - 70) =     20.33001  eV     1   --> A_u            
     e( 71 - 71) =     20.34614  eV     1   --> B_1g           
     e( 72 - 72) =     20.63810  eV     1   --> A_g            
     e( 73 - 73) =     20.97146  eV     1   --> B_1g           
     e( 74 - 74) =     21.24055  eV     1   --> B_2u           
     e( 75 - 75) =     21.24184  eV     1   --> B_3u           
     e( 76 - 76) =     21.93721  eV     1   --> B_2g           
     e( 77 - 77) =     21.93805  eV     1   --> B_3g           
     e( 78 - 78) =     22.79555  eV     1   --> B_3u           
     e( 79 - 79) =     22.79582  eV     1   --> B_2u           
     e( 80 - 80) =     22.91480  eV     1   --> B_1g           

 **************************************************************************
 
     BANDS        :   1m40.96s CPU   2m 7.50s WALL

 
   This run was terminated on:  21:35: 6  31Dec2023            

=------------------------------------------------------------------------------=
   JOB DONE.
=------------------------------------------------------------------------------=
