
     Program PWSCF v.7.2 starts on 31Dec2023 at 21:27:17 

     This program is part of the open-source Quantum ESPRESSO suite
     for quantum simulation of materials; please cite
         "P. Giannozzi et al., J. Phys.:Condens. Matter 21 395502 (2009);
         "P. Giannozzi et al., J. Phys.:Condens. Matter 29 465901 (2017);
         "P. Giannozzi et al., J. Chem. Phys. 152 154105 (2020);
          URL http://www.quantum-espresso.org", 
     in publications or presentations arising from this work. More details at
     http://www.quantum-espresso.org/quote

     Parallel version (MPI), running on     4 processors

     MPI processes distributed on     1 nodes
     4918 MiB available memory on the printing compute node when the environment starts
 
     Waiting for input...
     Reading input from standard input
Warning: card &IONS ignored
Warning: card / ignored
Warning: card &CELL ignored
Warning: card / ignored

     Current dimensions of program PWSCF are:
     Max number of different atomic species (ntypx) = 10
     Max number of k-points (npk) =  40000
     Max angular momentum in pseudopotentials (lmaxx) =  4
     file Y.pz-spn-rrkjus_psl.1.0.0.UPF: wavefunction(s)  4S renormalized
     file Ba.pz-spn-rrkjus_psl.1.0.0.UPF: wavefunction(s)  5S 6S renormalized
     file Cu.pz-dn-rrkjus_psl.1.0.0.UPF: wavefunction(s)  3D renormalized

     Atomic positions and unit cell read from directory:
     ./YBCO6/YBCO6.save/
 
 
     R & G space division:  proc/nbgrp/npool/nimage =       4
     Subspace diagonalization in iterative solution of the eigenvalue problem:
     a serial algorithm will be used

 
     Parallelization info
     --------------------
     sticks:   dense  smooth     PW     G-vecs:    dense   smooth      PW
     Min         554     243     73                59678    17683    2789
     Max         555     244     74                59689    17698    2796
     Sum        2217     973    293               238729    70751   11167
 
     Using Slab Decomposition
 


     bravais-lattice index     =            6
     lattice parameter (alat)  =       7.1730  a.u.
     unit-cell volume          =    1125.5476 (a.u.)^3
     number of atoms/cell      =           12
     number of atomic types    =            4
     number of electrons       =       100.00
     number of Kohn-Sham states=           80
     kinetic-energy cutoff     =      60.0000  Ry
     charge density cutoff     =     540.0000  Ry
     Exchange-correlation= LDA
                           (   1   1   0   0   0   0   0)

     celldm(1)=   7.172959  celldm(2)=   0.000000  celldm(3)=   3.049782
     celldm(4)=   0.000000  celldm(5)=   0.000000  celldm(6)=   0.000000

     crystal axes: (cart. coord. in units of alat)
               a(1) = (   1.000000   0.000000   0.000000 )  
               a(2) = (   0.000000   1.000000   0.000000 )  
               a(3) = (   0.000000   0.000000   3.049782 )  

     reciprocal axes: (cart. coord. in units 2 pi/alat)
               b(1) = (  1.000000  0.000000  0.000000 )  
               b(2) = (  0.000000  1.000000  0.000000 )  
               b(3) = (  0.000000  0.000000  0.327892 )  


     PseudoPot. # 1 for Y  read from file:
     ~/q-e/pslibrary/pz/PSEUDOPOTENTIALS/Y.pz-spn-rrkjus_psl.1.0.0.UPF
     MD5 check sum: Not computed, couldn't open file
     Pseudo is Ultrasoft + core correction, Zval = 11.0
     Generated using 'atomic' code by A. Dal Corso  v.7.2
     Using radial grid of 1223 points,  6 beta functions with: 
                l(1) =   0
                l(2) =   0
                l(3) =   1
                l(4) =   1
                l(5) =   2
                l(6) =   2
     Q(r) pseudized with 0 coefficients 


     PseudoPot. # 2 for Ba read from file:
     ~/q-e/pslibrary/pz/PSEUDOPOTENTIALS/Ba.pz-spn-rrkjus_psl.1.0.0.UPF
     MD5 check sum: Not computed, couldn't open file
     Pseudo is Ultrasoft + core correction, Zval = 10.0
     Generated using 'atomic' code by A. Dal Corso  v.7.2
     Using radial grid of 1251 points,  7 beta functions with: 
                l(1) =   0
                l(2) =   0
                l(3) =   0
                l(4) =   1
                l(5) =   1
                l(6) =   2
                l(7) =   2
     Q(r) pseudized with 0 coefficients 


     PseudoPot. # 3 for Cu read from file:
     ~/q-e/pslibrary/pz/PSEUDOPOTENTIALS/Cu.pz-dn-rrkjus_psl.1.0.0.UPF
     MD5 check sum: Not computed, couldn't open file
     Pseudo is Ultrasoft + core correction, Zval = 11.0
     Generated using 'atomic' code by A. Dal Corso  v.7.2
     Using radial grid of 1199 points,  6 beta functions with: 
                l(1) =   0
                l(2) =   0
                l(3) =   1
                l(4) =   1
                l(5) =   2
                l(6) =   2
     Q(r) pseudized with 0 coefficients 


     PseudoPot. # 4 for O  read from file:
     ~/q-e/pslibrary/pz/PSEUDOPOTENTIALS/O.pz-n-rrkjus_psl.1.0.0.UPF
     MD5 check sum: Not computed, couldn't open file
     Pseudo is Ultrasoft + core correction, Zval =  6.0
     Generated using 'atomic' code by A. Dal Corso  v.7.2
     Using radial grid of 1095 points,  4 beta functions with: 
                l(1) =   0
                l(2) =   0
                l(3) =   1
                l(4) =   1
     Q(r) pseudized with 0 coefficients 


     atomic species   valence    mass     pseudopotential
     Y                11.00    88.90584     Y ( 1.00)
     Ba               10.00   137.32700     Ba( 1.00)
     Cu               11.00    63.54600     Cu( 1.00)
     O                 6.00    15.99900     O ( 1.00)

      8 Sym. Ops., with inversion, found


                                    s                        frac. trans.

      isym =  1     identity                                     

 cryst.   s( 1) = (     1          0          0      )
                  (     0          1          0      )
                  (     0          0          1      )

 cart.    s( 1) = (  1.0000000  0.0000000  0.0000000 )
                  (  0.0000000  1.0000000  0.0000000 )
                  (  0.0000000  0.0000000  1.0000000 )


      isym =  2     180 deg rotation - cart. axis [0,0,1]        

 cryst.   s( 2) = (    -1          0          0      )
                  (     0         -1          0      )
                  (     0          0          1      )

 cart.    s( 2) = ( -1.0000000  0.0000000  0.0000000 )
                  (  0.0000000 -1.0000000  0.0000000 )
                  (  0.0000000  0.0000000  1.0000000 )


      isym =  3     180 deg rotation - cart. axis [0,1,0]        

 cryst.   s( 3) = (    -1          0          0      )
                  (     0          1          0      )
                  (     0          0         -1      )

 cart.    s( 3) = ( -1.0000000  0.0000000  0.0000000 )
                  (  0.0000000  1.0000000  0.0000000 )
                  (  0.0000000  0.0000000 -1.0000000 )


      isym =  4     180 deg rotation - cart. axis [1,0,0]        

 cryst.   s( 4) = (     1          0          0      )
                  (     0         -1          0      )
                  (     0          0         -1      )

 cart.    s( 4) = (  1.0000000  0.0000000  0.0000000 )
                  (  0.0000000 -1.0000000  0.0000000 )
                  (  0.0000000  0.0000000 -1.0000000 )


      isym =  5     inversion                                    

 cryst.   s( 5) = (    -1          0          0      )
                  (     0         -1          0      )
                  (     0          0         -1      )

 cart.    s( 5) = ( -1.0000000  0.0000000  0.0000000 )
                  (  0.0000000 -1.0000000  0.0000000 )
                  (  0.0000000  0.0000000 -1.0000000 )


      isym =  6     inv. 180 deg rotation - cart. axis [0,0,1]   

 cryst.   s( 6) = (     1          0          0      )
                  (     0          1          0      )
                  (     0          0         -1      )

 cart.    s( 6) = (  1.0000000  0.0000000  0.0000000 )
                  (  0.0000000  1.0000000  0.0000000 )
                  (  0.0000000  0.0000000 -1.0000000 )


      isym =  7     inv. 180 deg rotation - cart. axis [0,1,0]   

 cryst.   s( 7) = (     1          0          0      )
                  (     0         -1          0      )
                  (     0          0          1      )

 cart.    s( 7) = (  1.0000000  0.0000000  0.0000000 )
                  (  0.0000000 -1.0000000  0.0000000 )
                  (  0.0000000  0.0000000  1.0000000 )


      isym =  8     inv. 180 deg rotation - cart. axis [1,0,0]   

 cryst.   s( 8) = (    -1          0          0      )
                  (     0          1          0      )
                  (     0          0          1      )

 cart.    s( 8) = ( -1.0000000  0.0000000  0.0000000 )
                  (  0.0000000  1.0000000  0.0000000 )
                  (  0.0000000  0.0000000  1.0000000 )


     point group D_2h (mmm) 
     there are  8 classes
     the character table:

       E     C2    C2'   C2''  i     s_v   s_v'  s_v''
A_g    1.00  1.00  1.00  1.00  1.00  1.00  1.00  1.00
B_1g   1.00  1.00 -1.00 -1.00  1.00  1.00 -1.00 -1.00
B_2g   1.00 -1.00  1.00 -1.00  1.00 -1.00  1.00 -1.00
B_3g   1.00 -1.00 -1.00  1.00  1.00 -1.00 -1.00  1.00
A_u    1.00  1.00  1.00  1.00 -1.00 -1.00 -1.00 -1.00
B_1u   1.00  1.00 -1.00 -1.00 -1.00 -1.00  1.00  1.00
B_2u   1.00 -1.00  1.00 -1.00 -1.00  1.00 -1.00  1.00
B_3u   1.00 -1.00 -1.00  1.00 -1.00  1.00  1.00 -1.00

     the symmetry operations in each class and the name of the first element:

     E        1
          identity                                               
     C2       2
          180 deg rotation - cart. axis [0,0,1]                  
     C2'      4
          180 deg rotation - cart. axis [1,0,0]                  
     C2''     3
          180 deg rotation - cart. axis [0,1,0]                  
     i        5
          inversion                                              
     s_v      6
          inv. 180 deg rotation - cart. axis [0,0,1]             
     s_v'     8
          inv. 180 deg rotation - cart. axis [1,0,0]             
     s_v''    7
          inv. 180 deg rotation - cart. axis [0,1,0]             

   Cartesian axes

     site n.     atom                  positions (alat units)
         1        Y      tau(   1) = (   0.5000000   0.5000000   1.5248910  )
         2        Ba     tau(   2) = (   0.5000000   0.5000000   0.5933142  )
         3        Ba     tau(   3) = (   0.5000000   0.5000000   2.4564678  )
         4        Cu     tau(   4) = (   0.0000000   0.0000000   0.0000000  )
         5        Cu     tau(   5) = (   0.0000000   0.0000000   1.1052738  )
         6        Cu     tau(   6) = (   0.0000000   0.0000000   1.9445082  )
         7        O      tau(   7) = (   0.5000000   0.0000000   1.1538851  )
         8        O      tau(   8) = (   0.5000000   0.0000000   1.8958969  )
         9        O      tau(   9) = (   0.0000000   0.5000000   1.1539576  )
        10        O      tau(  10) = (   0.0000000   0.5000000   1.8958244  )
        11        O      tau(  11) = (   0.0000000   0.0000000   0.4628128  )
        12        O      tau(  12) = (   0.0000000   0.0000000   2.5869691  )

   Crystallographic axes

     site n.     atom                  positions (cryst. coord.)
         1        Y      tau(   1) = (  0.5000000  0.5000000  0.5000000  )
         2        Ba     tau(   2) = (  0.5000000  0.5000000  0.1945431  )
         3        Ba     tau(   3) = (  0.5000000  0.5000000  0.8054569  )
         4        Cu     tau(   4) = (  0.0000000  0.0000000  0.0000000  )
         5        Cu     tau(   5) = (  0.0000000  0.0000000  0.3624108  )
         6        Cu     tau(   6) = (  0.0000000  0.0000000  0.6375892  )
         7        O      tau(   7) = (  0.5000000  0.0000000  0.3783500  )
         8        O      tau(   8) = (  0.5000000  0.0000000  0.6216500  )
         9        O      tau(   9) = (  0.0000000  0.5000000  0.3783738  )
        10        O      tau(  10) = (  0.0000000  0.5000000  0.6216262  )
        11        O      tau(  11) = (  0.0000000  0.0000000  0.1517528  )
        12        O      tau(  12) = (  0.0000000  0.0000000  0.8482472  )

     number of k points=   101
                       cart. coord. in units 2pi/alat
        k(    1) = (   0.0000000   0.0000000   0.0000000), wk =   0.0198020
        k(    2) = (   0.0000000   0.0250000   0.0000000), wk =   0.0198020
        k(    3) = (   0.0000000   0.0500000   0.0000000), wk =   0.0198020
        k(    4) = (   0.0000000   0.0750000   0.0000000), wk =   0.0198020
        k(    5) = (   0.0000000   0.1000000   0.0000000), wk =   0.0198020
        k(    6) = (   0.0000000   0.1250000   0.0000000), wk =   0.0198020
        k(    7) = (   0.0000000   0.1500000   0.0000000), wk =   0.0198020
        k(    8) = (   0.0000000   0.1750000   0.0000000), wk =   0.0198020
        k(    9) = (   0.0000000   0.2000000   0.0000000), wk =   0.0198020
        k(   10) = (   0.0000000   0.2250000   0.0000000), wk =   0.0198020
        k(   11) = (   0.0000000   0.2500000   0.0000000), wk =   0.0198020
        k(   12) = (   0.0000000   0.2750000   0.0000000), wk =   0.0198020
        k(   13) = (   0.0000000   0.3000000   0.0000000), wk =   0.0198020
        k(   14) = (   0.0000000   0.3250000   0.0000000), wk =   0.0198020
        k(   15) = (   0.0000000   0.3500000   0.0000000), wk =   0.0198020
        k(   16) = (   0.0000000   0.3750000   0.0000000), wk =   0.0198020
        k(   17) = (   0.0000000   0.4000000   0.0000000), wk =   0.0198020
        k(   18) = (   0.0000000   0.4250000   0.0000000), wk =   0.0198020
        k(   19) = (   0.0000000   0.4500000   0.0000000), wk =   0.0198020
        k(   20) = (   0.0000000   0.4750000   0.0000000), wk =   0.0198020
        k(   21) = (   0.0000000   0.5000000   0.0000000), wk =   0.0198020
        k(   22) = (   0.0250000   0.5000000   0.0000000), wk =   0.0198020
        k(   23) = (   0.0500000   0.5000000   0.0000000), wk =   0.0198020
        k(   24) = (   0.0750000   0.5000000   0.0000000), wk =   0.0198020
        k(   25) = (   0.1000000   0.5000000   0.0000000), wk =   0.0198020
        k(   26) = (   0.1250000   0.5000000   0.0000000), wk =   0.0198020
        k(   27) = (   0.1500000   0.5000000   0.0000000), wk =   0.0198020
        k(   28) = (   0.1750000   0.5000000   0.0000000), wk =   0.0198020
        k(   29) = (   0.2000000   0.5000000   0.0000000), wk =   0.0198020
        k(   30) = (   0.2250000   0.5000000   0.0000000), wk =   0.0198020
        k(   31) = (   0.2500000   0.5000000   0.0000000), wk =   0.0198020
        k(   32) = (   0.2750000   0.5000000   0.0000000), wk =   0.0198020
        k(   33) = (   0.3000000   0.5000000   0.0000000), wk =   0.0198020
        k(   34) = (   0.3250000   0.5000000   0.0000000), wk =   0.0198020
        k(   35) = (   0.3500000   0.5000000   0.0000000), wk =   0.0198020
        k(   36) = (   0.3750000   0.5000000   0.0000000), wk =   0.0198020
        k(   37) = (   0.4000000   0.5000000   0.0000000), wk =   0.0198020
        k(   38) = (   0.4250000   0.5000000   0.0000000), wk =   0.0198020
        k(   39) = (   0.4500000   0.5000000   0.0000000), wk =   0.0198020
        k(   40) = (   0.4750000   0.5000000   0.0000000), wk =   0.0198020
        k(   41) = (   0.5000000   0.5000000   0.0000000), wk =   0.0198020
        k(   42) = (   0.5000000   0.4750000   0.0000000), wk =   0.0198020
        k(   43) = (   0.5000000   0.4500000   0.0000000), wk =   0.0198020
        k(   44) = (   0.5000000   0.4250000   0.0000000), wk =   0.0198020
        k(   45) = (   0.5000000   0.4000000   0.0000000), wk =   0.0198020
        k(   46) = (   0.5000000   0.3750000   0.0000000), wk =   0.0198020
        k(   47) = (   0.5000000   0.3500000   0.0000000), wk =   0.0198020
        k(   48) = (   0.5000000   0.3250000   0.0000000), wk =   0.0198020
        k(   49) = (   0.5000000   0.3000000   0.0000000), wk =   0.0198020
        k(   50) = (   0.5000000   0.2750000   0.0000000), wk =   0.0198020
        k(   51) = (   0.5000000   0.2500000   0.0000000), wk =   0.0198020
        k(   52) = (   0.5000000   0.2250000   0.0000000), wk =   0.0198020
        k(   53) = (   0.5000000   0.2000000   0.0000000), wk =   0.0198020
        k(   54) = (   0.5000000   0.1750000   0.0000000), wk =   0.0198020
        k(   55) = (   0.5000000   0.1500000   0.0000000), wk =   0.0198020
        k(   56) = (   0.5000000   0.1250000   0.0000000), wk =   0.0198020
        k(   57) = (   0.5000000   0.1000000   0.0000000), wk =   0.0198020
        k(   58) = (   0.5000000   0.0750000   0.0000000), wk =   0.0198020
        k(   59) = (   0.5000000   0.0500000   0.0000000), wk =   0.0198020
        k(   60) = (   0.5000000   0.0250000   0.0000000), wk =   0.0198020
        k(   61) = (   0.5000000   0.0000000   0.0000000), wk =   0.0198020
        k(   62) = (   0.4750000   0.0000000   0.0000000), wk =   0.0198020
        k(   63) = (   0.4500000   0.0000000   0.0000000), wk =   0.0198020
        k(   64) = (   0.4250000   0.0000000   0.0000000), wk =   0.0198020
        k(   65) = (   0.4000000   0.0000000   0.0000000), wk =   0.0198020
        k(   66) = (   0.3750000   0.0000000   0.0000000), wk =   0.0198020
        k(   67) = (   0.3500000   0.0000000   0.0000000), wk =   0.0198020
        k(   68) = (   0.3250000   0.0000000   0.0000000), wk =   0.0198020
        k(   69) = (   0.3000000   0.0000000   0.0000000), wk =   0.0198020
        k(   70) = (   0.2750000   0.0000000   0.0000000), wk =   0.0198020
        k(   71) = (   0.2500000   0.0000000   0.0000000), wk =   0.0198020
        k(   72) = (   0.2250000   0.0000000   0.0000000), wk =   0.0198020
        k(   73) = (   0.2000000   0.0000000   0.0000000), wk =   0.0198020
        k(   74) = (   0.1750000   0.0000000   0.0000000), wk =   0.0198020
        k(   75) = (   0.1500000   0.0000000   0.0000000), wk =   0.0198020
        k(   76) = (   0.1250000   0.0000000   0.0000000), wk =   0.0198020
        k(   77) = (   0.1000000   0.0000000   0.0000000), wk =   0.0198020
        k(   78) = (   0.0750000   0.0000000   0.0000000), wk =   0.0198020
        k(   79) = (   0.0500000   0.0000000   0.0000000), wk =   0.0198020
        k(   80) = (   0.0250000   0.0000000   0.0000000), wk =   0.0198020
        k(   81) = (   0.0000000   0.0000000   0.0000000), wk =   0.0198020
        k(   82) = (   0.0250000   0.0250000   0.0000000), wk =   0.0198020
        k(   83) = (   0.0500000   0.0500000   0.0000000), wk =   0.0198020
        k(   84) = (   0.0750000   0.0750000   0.0000000), wk =   0.0198020
        k(   85) = (   0.1000000   0.1000000   0.0000000), wk =   0.0198020
        k(   86) = (   0.1250000   0.1250000   0.0000000), wk =   0.0198020
        k(   87) = (   0.1500000   0.1500000   0.0000000), wk =   0.0198020
        k(   88) = (   0.1750000   0.1750000   0.0000000), wk =   0.0198020
        k(   89) = (   0.2000000   0.2000000   0.0000000), wk =   0.0198020
        k(   90) = (   0.2250000   0.2250000   0.0000000), wk =   0.0198020
        k(   91) = (   0.2500000   0.2500000   0.0000000), wk =   0.0198020
        k(   92) = (   0.2750000   0.2750000   0.0000000), wk =   0.0198020
        k(   93) = (   0.3000000   0.3000000   0.0000000), wk =   0.0198020
        k(   94) = (   0.3250000   0.3250000   0.0000000), wk =   0.0198020
        k(   95) = (   0.3500000   0.3500000   0.0000000), wk =   0.0198020
        k(   96) = (   0.3750000   0.3750000   0.0000000), wk =   0.0198020
        k(   97) = (   0.4000000   0.4000000   0.0000000), wk =   0.0198020
        k(   98) = (   0.4250000   0.4250000   0.0000000), wk =   0.0198020
        k(   99) = (   0.4500000   0.4500000   0.0000000), wk =   0.0198020
        k(  100) = (   0.4750000   0.4750000   0.0000000), wk =   0.0198020
        k(  101) = (   0.5000000   0.5000000   0.0000000), wk =   0.0198020

                       cryst. coord.
        k(    1) = (   0.0000000   0.0000000   0.0000000), wk =   0.0198020
        k(    2) = (   0.0000000   0.0250000   0.0000000), wk =   0.0198020
        k(    3) = (   0.0000000   0.0500000   0.0000000), wk =   0.0198020
        k(    4) = (   0.0000000   0.0750000   0.0000000), wk =   0.0198020
        k(    5) = (   0.0000000   0.1000000   0.0000000), wk =   0.0198020
        k(    6) = (   0.0000000   0.1250000   0.0000000), wk =   0.0198020
        k(    7) = (   0.0000000   0.1500000   0.0000000), wk =   0.0198020
        k(    8) = (   0.0000000   0.1750000   0.0000000), wk =   0.0198020
        k(    9) = (   0.0000000   0.2000000   0.0000000), wk =   0.0198020
        k(   10) = (   0.0000000   0.2250000   0.0000000), wk =   0.0198020
        k(   11) = (   0.0000000   0.2500000   0.0000000), wk =   0.0198020
        k(   12) = (   0.0000000   0.2750000   0.0000000), wk =   0.0198020
        k(   13) = (   0.0000000   0.3000000   0.0000000), wk =   0.0198020
        k(   14) = (   0.0000000   0.3250000   0.0000000), wk =   0.0198020
        k(   15) = (   0.0000000   0.3500000   0.0000000), wk =   0.0198020
        k(   16) = (   0.0000000   0.3750000   0.0000000), wk =   0.0198020
        k(   17) = (   0.0000000   0.4000000   0.0000000), wk =   0.0198020
        k(   18) = (   0.0000000   0.4250000   0.0000000), wk =   0.0198020
        k(   19) = (   0.0000000   0.4500000   0.0000000), wk =   0.0198020
        k(   20) = (   0.0000000   0.4750000   0.0000000), wk =   0.0198020
        k(   21) = (   0.0000000   0.5000000   0.0000000), wk =   0.0198020
        k(   22) = (   0.0250000   0.5000000   0.0000000), wk =   0.0198020
        k(   23) = (   0.0500000   0.5000000   0.0000000), wk =   0.0198020
        k(   24) = (   0.0750000   0.5000000   0.0000000), wk =   0.0198020
        k(   25) = (   0.1000000   0.5000000   0.0000000), wk =   0.0198020
        k(   26) = (   0.1250000   0.5000000   0.0000000), wk =   0.0198020
        k(   27) = (   0.1500000   0.5000000   0.0000000), wk =   0.0198020
        k(   28) = (   0.1750000   0.5000000   0.0000000), wk =   0.0198020
        k(   29) = (   0.2000000   0.5000000   0.0000000), wk =   0.0198020
        k(   30) = (   0.2250000   0.5000000   0.0000000), wk =   0.0198020
        k(   31) = (   0.2500000   0.5000000   0.0000000), wk =   0.0198020
        k(   32) = (   0.2750000   0.5000000   0.0000000), wk =   0.0198020
        k(   33) = (   0.3000000   0.5000000   0.0000000), wk =   0.0198020
        k(   34) = (   0.3250000   0.5000000   0.0000000), wk =   0.0198020
        k(   35) = (   0.3500000   0.5000000   0.0000000), wk =   0.0198020
        k(   36) = (   0.3750000   0.5000000   0.0000000), wk =   0.0198020
        k(   37) = (   0.4000000   0.5000000   0.0000000), wk =   0.0198020
        k(   38) = (   0.4250000   0.5000000   0.0000000), wk =   0.0198020
        k(   39) = (   0.4500000   0.5000000   0.0000000), wk =   0.0198020
        k(   40) = (   0.4750000   0.5000000   0.0000000), wk =   0.0198020
        k(   41) = (   0.5000000   0.5000000   0.0000000), wk =   0.0198020
        k(   42) = (   0.5000000   0.4750000   0.0000000), wk =   0.0198020
        k(   43) = (   0.5000000   0.4500000   0.0000000), wk =   0.0198020
        k(   44) = (   0.5000000   0.4250000   0.0000000), wk =   0.0198020
        k(   45) = (   0.5000000   0.4000000   0.0000000), wk =   0.0198020
        k(   46) = (   0.5000000   0.3750000   0.0000000), wk =   0.0198020
        k(   47) = (   0.5000000   0.3500000   0.0000000), wk =   0.0198020
        k(   48) = (   0.5000000   0.3250000   0.0000000), wk =   0.0198020
        k(   49) = (   0.5000000   0.3000000   0.0000000), wk =   0.0198020
        k(   50) = (   0.5000000   0.2750000   0.0000000), wk =   0.0198020
        k(   51) = (   0.5000000   0.2500000   0.0000000), wk =   0.0198020
        k(   52) = (   0.5000000   0.2250000   0.0000000), wk =   0.0198020
        k(   53) = (   0.5000000   0.2000000   0.0000000), wk =   0.0198020
        k(   54) = (   0.5000000   0.1750000   0.0000000), wk =   0.0198020
        k(   55) = (   0.5000000   0.1500000   0.0000000), wk =   0.0198020
        k(   56) = (   0.5000000   0.1250000   0.0000000), wk =   0.0198020
        k(   57) = (   0.5000000   0.1000000   0.0000000), wk =   0.0198020
        k(   58) = (   0.5000000   0.0750000   0.0000000), wk =   0.0198020
        k(   59) = (   0.5000000   0.0500000   0.0000000), wk =   0.0198020
        k(   60) = (   0.5000000   0.0250000   0.0000000), wk =   0.0198020
        k(   61) = (   0.5000000   0.0000000   0.0000000), wk =   0.0198020
        k(   62) = (   0.4750000   0.0000000   0.0000000), wk =   0.0198020
        k(   63) = (   0.4500000   0.0000000   0.0000000), wk =   0.0198020
        k(   64) = (   0.4250000   0.0000000   0.0000000), wk =   0.0198020
        k(   65) = (   0.4000000   0.0000000   0.0000000), wk =   0.0198020
        k(   66) = (   0.3750000   0.0000000   0.0000000), wk =   0.0198020
        k(   67) = (   0.3500000   0.0000000   0.0000000), wk =   0.0198020
        k(   68) = (   0.3250000   0.0000000   0.0000000), wk =   0.0198020
        k(   69) = (   0.3000000   0.0000000   0.0000000), wk =   0.0198020
        k(   70) = (   0.2750000   0.0000000   0.0000000), wk =   0.0198020
        k(   71) = (   0.2500000   0.0000000   0.0000000), wk =   0.0198020
        k(   72) = (   0.2250000   0.0000000   0.0000000), wk =   0.0198020
        k(   73) = (   0.2000000   0.0000000   0.0000000), wk =   0.0198020
        k(   74) = (   0.1750000   0.0000000   0.0000000), wk =   0.0198020
        k(   75) = (   0.1500000   0.0000000   0.0000000), wk =   0.0198020
        k(   76) = (   0.1250000   0.0000000   0.0000000), wk =   0.0198020
        k(   77) = (   0.1000000   0.0000000   0.0000000), wk =   0.0198020
        k(   78) = (   0.0750000   0.0000000   0.0000000), wk =   0.0198020
        k(   79) = (   0.0500000   0.0000000   0.0000000), wk =   0.0198020
        k(   80) = (   0.0250000   0.0000000   0.0000000), wk =   0.0198020
        k(   81) = (   0.0000000   0.0000000   0.0000000), wk =   0.0198020
        k(   82) = (   0.0250000   0.0250000   0.0000000), wk =   0.0198020
        k(   83) = (   0.0500000   0.0500000   0.0000000), wk =   0.0198020
        k(   84) = (   0.0750000   0.0750000   0.0000000), wk =   0.0198020
        k(   85) = (   0.1000000   0.1000000   0.0000000), wk =   0.0198020
        k(   86) = (   0.1250000   0.1250000   0.0000000), wk =   0.0198020
        k(   87) = (   0.1500000   0.1500000   0.0000000), wk =   0.0198020
        k(   88) = (   0.1750000   0.1750000   0.0000000), wk =   0.0198020
        k(   89) = (   0.2000000   0.2000000   0.0000000), wk =   0.0198020
        k(   90) = (   0.2250000   0.2250000   0.0000000), wk =   0.0198020
        k(   91) = (   0.2500000   0.2500000   0.0000000), wk =   0.0198020
        k(   92) = (   0.2750000   0.2750000   0.0000000), wk =   0.0198020
        k(   93) = (   0.3000000   0.3000000   0.0000000), wk =   0.0198020
        k(   94) = (   0.3250000   0.3250000   0.0000000), wk =   0.0198020
        k(   95) = (   0.3500000   0.3500000   0.0000000), wk =   0.0198020
        k(   96) = (   0.3750000   0.3750000   0.0000000), wk =   0.0198020
        k(   97) = (   0.4000000   0.4000000   0.0000000), wk =   0.0198020
        k(   98) = (   0.4250000   0.4250000   0.0000000), wk =   0.0198020
        k(   99) = (   0.4500000   0.4500000   0.0000000), wk =   0.0198020
        k(  100) = (   0.4750000   0.4750000   0.0000000), wk =   0.0198020
        k(  101) = (   0.5000000   0.5000000   0.0000000), wk =   0.0198020

     Dense  grid:   238729 G-vectors     FFT dimensions: (  54,  54, 162)

     Smooth grid:    70751 G-vectors     FFT dimensions: (  36,  36, 108)

     Dynamical RAM for                 wfc:       2.70 MB

     Dynamical RAM for     wfc (w. buffer):       2.70 MB

     Dynamical RAM for           str. fact:       3.64 MB

     Dynamical RAM for           local pot:       0.00 MB

     Dynamical RAM for          nlocal pot:       5.32 MB

     Dynamical RAM for                qrad:       9.94 MB

     Dynamical RAM for          rho,v,vnew:       5.47 MB

     Dynamical RAM for           G-vectors:       3.55 MB

     Dynamical RAM for          h,s,v(r/c):       1.17 MB

     Dynamical RAM for          <psi|beta>:       0.19 MB

     Dynamical RAM for                 psi:       5.39 MB

     Dynamical RAM for                hpsi:       5.39 MB

     Dynamical RAM for                spsi:       5.39 MB

     Dynamical RAM for      wfcinit/wfcrot:       5.54 MB

     Dynamical RAM for           addusdens:     192.17 MB

     Estimated static dynamical RAM per process >      39.74 MB

     Estimated max dynamical RAM per process >     231.91 MB

     Estimated total dynamical RAM >     927.65 MB

     The potential is recalculated from file :
     ./YBCO6/YBCO6.save/charge-density

     Starting wfcs are   74 randomized atomic wfcs +    6 random wfcs

     Band Structure Calculation
     Davidson diagonalization with overlap

     Computing kpt #:     1  of   101
     total cpu time spent up to now is        2.7 secs

     Computing kpt #:     2  of   101
     total cpu time spent up to now is        4.5 secs

     Computing kpt #:     3  of   101
     total cpu time spent up to now is        6.4 secs

     Computing kpt #:     4  of   101
     total cpu time spent up to now is        8.3 secs

     Computing kpt #:     5  of   101
     total cpu time spent up to now is       10.3 secs

     Computing kpt #:     6  of   101
     total cpu time spent up to now is       12.6 secs

     Computing kpt #:     7  of   101
     c_bands:  1 eigenvalues not converged
     total cpu time spent up to now is       15.2 secs

     Computing kpt #:     8  of   101
     total cpu time spent up to now is       17.9 secs

     Computing kpt #:     9  of   101
     total cpu time spent up to now is       20.1 secs

     Computing kpt #:    10  of   101
     total cpu time spent up to now is       22.8 secs

     Computing kpt #:    11  of   101
     total cpu time spent up to now is       25.7 secs

     Computing kpt #:    12  of   101
     total cpu time spent up to now is       28.5 secs

     Computing kpt #:    13  of   101
     total cpu time spent up to now is       31.2 secs

     Computing kpt #:    14  of   101
     total cpu time spent up to now is       33.9 secs

     Computing kpt #:    15  of   101
     total cpu time spent up to now is       36.5 secs

     Computing kpt #:    16  of   101
     total cpu time spent up to now is       39.4 secs

     Computing kpt #:    17  of   101
     total cpu time spent up to now is       42.1 secs

     Computing kpt #:    18  of   101
     total cpu time spent up to now is       44.6 secs

     Computing kpt #:    19  of   101
     total cpu time spent up to now is       47.1 secs

     Computing kpt #:    20  of   101
     total cpu time spent up to now is       49.4 secs

     Computing kpt #:    21  of   101
     total cpu time spent up to now is       51.7 secs

     Computing kpt #:    22  of   101
     total cpu time spent up to now is       54.2 secs

     Computing kpt #:    23  of   101
     total cpu time spent up to now is       56.6 secs

     Computing kpt #:    24  of   101
     total cpu time spent up to now is       59.1 secs

     Computing kpt #:    25  of   101
     total cpu time spent up to now is       61.5 secs

     Computing kpt #:    26  of   101
     total cpu time spent up to now is       64.2 secs

     Computing kpt #:    27  of   101
     total cpu time spent up to now is       66.8 secs

     Computing kpt #:    28  of   101
     total cpu time spent up to now is       69.5 secs

     Computing kpt #:    29  of   101
     total cpu time spent up to now is       72.0 secs

     Computing kpt #:    30  of   101
     total cpu time spent up to now is       74.5 secs

     Computing kpt #:    31  of   101
     total cpu time spent up to now is       77.5 secs

     Computing kpt #:    32  of   101
     c_bands:  1 eigenvalues not converged
     total cpu time spent up to now is       80.7 secs

     Computing kpt #:    33  of   101
     total cpu time spent up to now is       83.4 secs

     Computing kpt #:    34  of   101
     total cpu time spent up to now is       86.2 secs

     Computing kpt #:    35  of   101
     total cpu time spent up to now is       88.8 secs

     Computing kpt #:    36  of   101
     total cpu time spent up to now is       91.4 secs

     Computing kpt #:    37  of   101
     total cpu time spent up to now is       94.1 secs

     Computing kpt #:    38  of   101
     total cpu time spent up to now is       96.9 secs

     Computing kpt #:    39  of   101
     total cpu time spent up to now is       99.6 secs

     Computing kpt #:    40  of   101
     total cpu time spent up to now is      102.7 secs

     Computing kpt #:    41  of   101
     total cpu time spent up to now is      105.3 secs

     Computing kpt #:    42  of   101
     total cpu time spent up to now is      108.1 secs

     Computing kpt #:    43  of   101
     total cpu time spent up to now is      111.2 secs

     Computing kpt #:    44  of   101
     total cpu time spent up to now is      114.0 secs

     Computing kpt #:    45  of   101
     total cpu time spent up to now is      116.7 secs

     Computing kpt #:    46  of   101
     total cpu time spent up to now is      119.4 secs

     Computing kpt #:    47  of   101
     total cpu time spent up to now is      122.0 secs

     Computing kpt #:    48  of   101
     total cpu time spent up to now is      124.6 secs

     Computing kpt #:    49  of   101
     total cpu time spent up to now is      127.4 secs

     Computing kpt #:    50  of   101
     total cpu time spent up to now is      130.6 secs

     Computing kpt #:    51  of   101
     total cpu time spent up to now is      133.3 secs

     Computing kpt #:    52  of   101
     total cpu time spent up to now is      135.8 secs

     Computing kpt #:    53  of   101
     total cpu time spent up to now is      138.4 secs

     Computing kpt #:    54  of   101
     total cpu time spent up to now is      140.9 secs

     Computing kpt #:    55  of   101
     total cpu time spent up to now is      143.5 secs

     Computing kpt #:    56  of   101
     total cpu time spent up to now is      146.1 secs

     Computing kpt #:    57  of   101
     total cpu time spent up to now is      148.7 secs

     Computing kpt #:    58  of   101
     total cpu time spent up to now is      151.3 secs

     Computing kpt #:    59  of   101
     total cpu time spent up to now is      153.8 secs

     Computing kpt #:    60  of   101
     total cpu time spent up to now is      156.3 secs

     Computing kpt #:    61  of   101
     total cpu time spent up to now is      158.6 secs

     Computing kpt #:    62  of   101
     total cpu time spent up to now is      161.1 secs

     Computing kpt #:    63  of   101
     total cpu time spent up to now is      163.5 secs

     Computing kpt #:    64  of   101
     total cpu time spent up to now is      166.1 secs

     Computing kpt #:    65  of   101
     total cpu time spent up to now is      169.2 secs

     Computing kpt #:    66  of   101
     total cpu time spent up to now is      172.1 secs

     Computing kpt #:    67  of   101
     total cpu time spent up to now is      175.0 secs

     Computing kpt #:    68  of   101
     total cpu time spent up to now is      177.6 secs

     Computing kpt #:    69  of   101
     total cpu time spent up to now is      180.3 secs

     Computing kpt #:    70  of   101
     total cpu time spent up to now is      183.1 secs

     Computing kpt #:    71  of   101
     total cpu time spent up to now is      185.9 secs

     Computing kpt #:    72  of   101
     total cpu time spent up to now is      188.6 secs

     Computing kpt #:    73  of   101
     total cpu time spent up to now is      191.3 secs

     Computing kpt #:    74  of   101
     total cpu time spent up to now is      194.0 secs

     Computing kpt #:    75  of   101
     c_bands:  1 eigenvalues not converged
     total cpu time spent up to now is      197.1 secs

     Computing kpt #:    76  of   101
     c_bands:  1 eigenvalues not converged
     total cpu time spent up to now is      200.2 secs

     Computing kpt #:    77  of   101
     total cpu time spent up to now is      202.7 secs

     Computing kpt #:    78  of   101
     total cpu time spent up to now is      205.0 secs

     Computing kpt #:    79  of   101
     total cpu time spent up to now is      207.3 secs

     Computing kpt #:    80  of   101
     total cpu time spent up to now is      209.5 secs

     Computing kpt #:    81  of   101
     total cpu time spent up to now is      211.6 secs

     Computing kpt #:    82  of   101
     total cpu time spent up to now is      213.8 secs

     Computing kpt #:    83  of   101
     total cpu time spent up to now is      215.9 secs

     Computing kpt #:    84  of   101
     total cpu time spent up to now is      218.3 secs

     Computing kpt #:    85  of   101
     total cpu time spent up to now is      221.4 secs

     Computing kpt #:    86  of   101
     total cpu time spent up to now is      224.6 secs

     Computing kpt #:    87  of   101
     c_bands:  1 eigenvalues not converged
     total cpu time spent up to now is      227.8 secs

     Computing kpt #:    88  of   101
     c_bands:  1 eigenvalues not converged
     total cpu time spent up to now is      231.1 secs

     Computing kpt #:    89  of   101
     c_bands:  1 eigenvalues not converged
     total cpu time spent up to now is      234.4 secs

     Computing kpt #:    90  of   101
     total cpu time spent up to now is      237.3 secs

     Computing kpt #:    91  of   101
     total cpu time spent up to now is      240.2 secs

     Computing kpt #:    92  of   101
     total cpu time spent up to now is      242.9 secs

     Computing kpt #:    93  of   101
     total cpu time spent up to now is      245.6 secs

     Computing kpt #:    94  of   101
     total cpu time spent up to now is      248.3 secs

     Computing kpt #:    95  of   101
     total cpu time spent up to now is      251.2 secs

     Computing kpt #:    96  of   101
     total cpu time spent up to now is      254.1 secs

     Computing kpt #:    97  of   101
     total cpu time spent up to now is      257.0 secs

     Computing kpt #:    98  of   101
     total cpu time spent up to now is      259.7 secs

     Computing kpt #:    99  of   101
     total cpu time spent up to now is      262.5 secs

     Computing kpt #:   100  of   101
     total cpu time spent up to now is      265.5 secs

     Computing kpt #:   101  of   101
     total cpu time spent up to now is      268.2 secs

     ethr =  1.00E-11,  avg # of iterations = 69.6

     total cpu time spent up to now is      268.2 secs

     End of band structure calculation

          k = 0.0000 0.0000 0.0000 (  8853 PWs)   bands (ev):

   -30.9629 -16.0503 -16.0447 -11.7820 -11.0475 -11.0475  -8.7025  -7.5020
    -7.3890  -7.0834  -6.6631  -6.3088  -1.3859  -1.1633  -0.8574  -0.8574
    -0.8551  -0.8551   4.5065   4.5066   4.7414   4.9254   4.9258   5.1149
     5.8495   6.4919   7.0359   7.0359   7.0423   7.1085   7.1192   7.3208
     7.3212   7.3522   7.3668   7.3670   7.8651   7.8662   7.8705   7.9842
     8.0168   8.0170   8.2577   8.3153   8.4916   8.5786   8.5840   8.5843
     8.7099  10.1739  10.1739  12.2952  13.1521  13.3013  13.4696  14.4099
    15.0094  15.1046  16.0411  16.0510  16.0511  16.1620  16.9917  16.9921
    17.3683  17.6992  17.9036  17.9105  18.6234  18.6244  19.2854  20.2634
    20.4236  20.4427  20.4429  21.8400  22.3206  22.3217  22.4915  22.6752

          k = 0.0000 0.0250 0.0000 (  8841 PWs)   bands (ev):

   -30.9628 -16.0495 -16.0438 -11.7802 -11.0536 -11.0474  -8.6964  -7.5026
    -7.3871  -7.0853  -6.6653  -6.3112  -1.3862  -1.1645  -0.8583  -0.8560
    -0.8549  -0.8537   4.5038   4.5085   4.7361   4.9201   4.9262   5.1169
     5.8489   6.4876   7.0211   7.0232   7.0325   7.0915   7.0938   7.2796
     7.3417   7.3691   7.3768   7.4297   7.8300   7.8692   7.8737   7.9411
     8.0214   8.0216   8.2849   8.3161   8.5231   8.5744   8.5845   8.5883
     8.7160  10.1694  10.1703  12.3084  13.1659  13.2994  13.4827  14.4180
    15.0077  15.1174  15.9486  16.0529  16.1289  16.1648  16.9712  16.9879
    17.3786  17.7304  17.9129  17.9228  18.6138  18.6246  19.2689  20.2398
    20.2945  20.4462  20.6029  21.8487  22.2985  22.3344  22.4959  22.7420

          k = 0.0000 0.0500 0.0000 (  8835 PWs)   bands (ev):

   -30.9624 -16.0469 -16.0413 -11.7750 -11.0715 -11.0469  -8.6783  -7.5045
    -7.3817  -7.0908  -6.6717  -6.3183  -1.3873  -1.1678  -0.8612  -0.8544
    -0.8517  -0.8493   4.4949   4.5144   4.7174   4.9083   4.9274   5.1219
     5.8465   6.4748   6.9729   6.9730   7.0208   7.0269   7.0704   7.2635
     7.3765   7.3859   7.3994   7.5379   7.7411   7.8474   7.8817   7.8895
     8.0239   8.0345   8.3014   8.3483   8.5646   8.5840   8.5902   8.6055
     8.7426  10.1558  10.1595  12.3479  13.2066  13.2936  13.5217  14.4418
    15.0030  15.1558  15.8368  16.0590  16.1729  16.2009  16.9189  16.9767
    17.4058  17.8141  17.9403  17.9579  18.5866  18.6254  19.2125  20.1354
    20.2615  20.4561  20.7713  21.8737  22.2617  22.3758  22.5082  22.9057

          k = 0.0000 0.0750 0.0000 (  8839 PWs)   bands (ev):

   -30.9619 -16.0427 -16.0371 -11.7664 -11.1003 -11.0462  -8.6491  -7.5084
    -7.3730  -7.0992  -6.6821  -6.3300  -1.3890  -1.1731  -0.8659  -0.8538
    -0.8446  -0.8422   4.4794   4.5241   4.6794   4.8986   4.9296   5.1288
     5.8416   6.4533   6.9010   6.9032   6.9459   7.0112   7.0488   7.2641
     7.3895   7.4238   7.4340   7.6221   7.6615   7.7467   7.9028   7.9029
     8.0245   8.0542   8.2900   8.3899   8.5513   8.5823   8.6399   8.6458
     8.8129  10.1341  10.1420  12.4123  13.2619  13.2944  13.5863  14.4798
    14.9953  15.2189  15.7154  16.0699  16.1858  16.2676  16.8510  16.9613
    17.4411  17.9306  17.9841  18.0110  18.5484  18.6274  19.1054  20.0603
    20.2484  20.4707  20.9316  21.9117  22.2420  22.4444  22.5257  23.1259

          k = 0.0000 0.1000 0.0000 (  8837 PWs)   bands (ev):

   -30.9612 -16.0370 -16.0314 -11.7546 -11.1386 -11.0452  -8.6101  -7.5150
    -7.3614  -7.1094  -6.6963  -6.3457  -1.3910  -1.1799  -0.8722  -0.8532
    -0.8350  -0.8323   4.4560   4.5377   4.6198   4.8967   4.9326   5.1369
     5.8337   6.4236   6.8180   6.8224   6.8724   6.9967   7.0246   7.2681
     7.4074   7.4434   7.4777   7.5092   7.6423   7.7783   7.9195   7.9326
     8.0240   8.0769   8.2699   8.4146   8.5372   8.5797   8.6614   8.7089
     8.9204  10.1051  10.1187  12.4998  13.2539  13.3763  13.6759  14.5293
    14.9849  15.3054  15.5929  16.0864  16.2033  16.3329  16.7782  16.9451
    17.4754  18.0420  18.0599  18.0757  18.5122  18.6315  18.9526  20.0247
    20.2499  20.4873  21.0802  21.9584  22.2480  22.5397  22.5438  23.3801

          k = 0.0000 0.1250 0.0000 (  8843 PWs)   bands (ev):

   -30.9603 -16.0298 -16.0243 -11.7398 -11.1846 -11.0439  -8.5629  -7.5256
    -7.3475  -7.1200  -6.7137  -6.3652  -1.3933  -1.1877  -0.8802  -0.8529
    -0.8229  -0.8201   4.4238   4.5416   4.5551   4.9019   4.9367   5.1457
     5.8227   6.3863   6.7298   6.7351   6.8094   6.9810   6.9959   7.2676
     7.3997   7.4199   7.4551   7.5141   7.5507   7.9015   7.9328   7.9703
     8.0214   8.0973   8.2454   8.4319   8.5264   8.5770   8.6722   8.7828
     9.0384  10.0703  10.0905  12.6079  13.2232  13.4951  13.7894  14.5856
    14.9722  15.4131  15.4793  16.1096  16.2253  16.3978  16.7054  16.9313
    17.5027  18.1108  18.1449  18.1694  18.5092  18.6391  18.7745  20.0011
    20.2801  20.5020  21.2130  22.0093  22.2841  22.5559  22.6608  23.6447

          k = 0.0000 0.1500 0.0000 (  8845 PWs)   bands (ev):

   -30.9592 -16.0214 -16.0159 -11.7222 -11.2365 -11.0424  -8.5091  -7.5412
    -7.3321  -7.1295  -6.7339  -6.3877  -1.3954  -1.1959  -0.8895  -0.8531
    -0.8087  -0.8056   4.3818   4.4499   4.5761   4.9114   4.9418   5.1553
     5.8098   6.3429   6.6388   6.6443   6.7594   6.9626   6.9636   7.2402
     7.3237   7.3778   7.4582   7.5222   7.5431   7.9364   8.0144   8.0155
     8.0252   8.1100   8.2249   8.4504   8.5229   8.5754   8.6795   8.8576
     9.1547  10.0312  10.0586  12.7338  13.1789  13.6373  13.9253  14.6414
    14.9576  15.3861  15.5394  16.1401  16.2530  16.4605  16.6339  16.9218
    17.5201  18.1872  18.2081  18.2117  18.5920  18.5934  18.6519  19.9708
    20.3411  20.5103  21.3220  22.0605  22.3565  22.5533  22.8056  23.8677

          k = 0.0000 0.1750 0.0000 (  8840 PWs)   bands (ev):

   -30.9580 -16.0119 -16.0065 -11.7022 -11.2924 -11.0408  -8.4503  -7.5627
    -7.3160  -7.1362  -6.7561  -6.4128  -1.3973  -1.2039  -0.9001  -0.8542
    -0.7927  -0.7893   4.3299   4.3494   4.6007   4.9225   4.9482   5.1653
     5.7969   6.2953   6.5466   6.5520   6.7231   6.9250   6.9422   7.1686
     7.2857   7.3029   7.4526   7.5502   7.5657   7.9248   8.0074   8.0627
     8.1113   8.1480   8.2166   8.4739   8.5270   8.5783   8.6854   8.9278
     9.2640   9.9892  10.0243  12.8739  13.1202  13.7998  14.0814  14.6868
    14.9417  15.3249  15.6797  16.1787  16.2883  16.5164  16.5647  16.9178
    17.5271  18.1857  18.2677  18.2698  18.4281  18.6712  18.7524  19.9330
    20.4219  20.5075  21.3980  22.1084  22.4717  22.5268  22.9697  23.8385

          k = 0.0000 0.2000 0.0000 (  8834 PWs)   bands (ev):

   -30.9567 -16.0016 -15.9962 -11.6801 -11.3506 -11.0390  -8.3882  -7.5906
    -7.3003  -7.1394  -6.7794  -6.4397  -1.3987  -1.2113  -0.9116  -0.8563
    -0.7751  -0.7714   4.2437   4.2684   4.6287   4.9332   4.9557   5.1754
     5.7863   6.2452   6.4542   6.4598   6.6997   6.8836   6.9138   7.0981
     7.1857   7.2964   7.4388   7.5833   7.5872   7.8992   8.0010   8.1011
     8.1131   8.2218   8.2685   8.5039   8.5319   8.5927   8.6907   8.9909
     9.3638   9.9458   9.9886  13.0172  13.0542  13.9789  14.2550  14.7126
    14.9249  15.3049  15.8259  16.2256  16.3338  16.5023  16.5594  16.9201
    17.5231  18.1428  18.2960  18.3154  18.3488  18.6969  18.9502  19.8920
    20.4894  20.5105  21.4366  22.1480  22.4726  22.6295  23.1419  23.7453

          k = 0.0000 0.2250 0.0000 (  8848 PWs)   bands (ev):

   -30.9553 -15.9907 -15.9854 -11.6565 -11.4094 -11.0371  -8.3241  -7.6244
    -7.2861  -7.1387  -6.8028  -6.4678  -1.3994  -1.2174  -0.9239  -0.8595
    -0.7564  -0.7524   4.1361   4.1987   4.6600   4.9421   4.9646   5.1849
     5.7805   6.1944   6.3623   6.3689   6.6866   6.8394   6.8777   7.0448
     7.0860   7.2908   7.4171   7.5971   7.6136   7.8732   7.9989   8.0829
     8.1638   8.2362   8.3853   8.5317   8.5409   8.6218   8.6960   9.0456
     9.4527   9.9024   9.9528  12.9544  13.1874  14.1697  14.4422  14.7189
    14.9077  15.3245  15.9610  16.2807  16.3810  16.4719  16.5834  16.9285
    17.5049  18.0951  18.2149  18.3478  18.4272  18.7263  19.1689  19.8518
    20.4536  20.5991  21.4415  22.1655  22.4031  22.8207  23.2910  23.7366

          k = 0.0000 0.2500 0.0000 (  8834 PWs)   bands (ev):

   -30.9539 -15.9794 -15.9742 -11.6318 -11.4675 -11.0351  -8.2594  -7.6631
    -7.2746  -7.1344  -6.8253  -6.4965  -1.3994  -1.2221  -0.9366  -0.8640
    -0.7371  -0.7327   4.0292   4.1229   4.6942   4.9487   4.9749   5.1932
     5.7817   6.1441   6.2717   6.2804   6.6783   6.7933   6.8420   6.9885
     7.0064   7.2844   7.3884   7.6081   7.6136   7.8612   8.0059   8.0611
     8.2131   8.2553   8.4961   8.5279   8.5849   8.6601   8.7022   9.0911
     9.5302   9.8603   9.9178  12.8535  13.3502  14.3626  14.6384  14.7190
    14.8907  15.3709  16.0494  16.3437  16.3958  16.5441  16.5853  16.9428
    17.4685  18.0463  18.1983  18.3693  18.4994  18.7546  19.4022  19.8159
    20.4000  20.6826  21.4211  22.1247  22.3618  23.0312  23.3720  23.8554

          k = 0.0000 0.2750 0.0000 (  8830 PWs)   bands (ev):

   -30.9525 -15.9681 -15.9629 -11.6065 -11.5234 -11.0332  -8.1951  -7.7051
    -7.2669  -7.1271  -6.8457  -6.5249  -1.3986  -1.2250  -0.9496  -0.8697
    -0.7175  -0.7128   3.9256   4.0438   4.7311   4.9523   4.9865   5.1999
     5.7910   6.0955   6.1831   6.1952   6.6656   6.7465   6.8209   6.8937
     6.9756   7.2777   7.3540   7.5852   7.6170   7.8601   8.0296   8.0389
     8.2599   8.2766   8.5224   8.5956   8.6348   8.7024   8.7138   9.1275
     9.5961   9.8206   9.8844  12.7425  13.5139  14.5280  14.7470  14.8379
    14.8742  15.4289  16.0584  16.4138  16.4387  16.5673  16.6910  16.9622
    17.4156  17.9972  18.2473  18.3834  18.5622  18.7772  19.6465  19.7880
    20.3316  20.7579  21.3844  22.0164  22.3696  23.2463  23.4070  23.8574

          k = 0.0000 0.3000 0.0000 (  8826 PWs)   bands (ev):

   -30.9511 -15.9569 -15.9519 -11.5814 -11.5762 -11.0313  -8.1324  -7.7486
    -7.2636  -7.1178  -6.8632  -6.5525  -1.3971  -1.2260  -0.9624  -0.8767
    -0.6983  -0.6931   3.8273   3.9640   4.7703   4.9530   4.9992   5.2051
     5.8091   6.0495   6.0971   6.1143   6.6425   6.7001   6.8018   6.8232
     6.9472   7.2708   7.3154   7.5411   7.6244   7.8562   8.0186   8.0721
     8.2994   8.3034   8.5165   8.6616   8.6893   8.7450   8.7516   9.1547
     9.6505   9.7843   9.8533  12.6256  13.6746  14.5998  14.8586  14.8683
    15.0346  15.4881  16.0129  16.4898  16.5183  16.5358  16.8785  16.9858
    17.3537  17.9487  18.3501  18.3930  18.6125  18.7907  19.7733  19.8982
    20.2540  20.8233  21.3391  21.8820  22.3969  23.4384  23.4511  23.8169

          k = 0.0000 0.3250 0.0000 (  8812 PWs)   bands (ev):

   -30.9498 -15.9463 -15.9414 -11.6249 -11.5570 -11.0295  -8.0724  -7.7920
    -7.2652  -7.1072  -6.8772  -6.5787  -1.3951  -1.2252  -0.9748  -0.8846
    -0.6798  -0.6743   3.7363   3.8863   4.8113   4.9510   5.0131   5.2091
     5.8352   6.0072   6.0145   6.0387   6.6137   6.6553   6.7131   6.8437
     6.9189   7.2641   7.2749   7.4924   7.6305   7.8460   8.0011   8.1252
     8.3243   8.3429   8.5105   8.6817   8.7466   8.7859   8.8269   9.1733
     9.6927   9.7534   9.8250  12.5068  13.8289  14.6117  14.8442  15.0429
    15.2222  15.5439  15.9483  16.4982  16.5701  16.6156  17.0124  17.0843
    17.2902  17.9041  18.4005  18.4905  18.6474  18.7939  19.7786  20.1533
    20.1740  20.8778  21.2914  21.7485  22.4278  23.4781  23.6044  23.7732

          k = 0.0000 0.3500 0.0000 (  8806 PWs)   bands (ev):

   -30.9486 -15.9365 -15.9316 -11.6686 -11.5340 -11.0278  -8.0162  -7.8335
    -7.2713  -7.0963  -6.8875  -6.6028  -1.3926  -1.2228  -0.9864  -0.8932
    -0.6626  -0.6567   3.6542   3.8135   4.8532   4.9469   5.0278   5.2127
     5.8685   5.9362   5.9692   5.9693   6.5859   6.6135   6.6278   6.8707
     6.8937   7.2343   7.2576   7.4447   7.6356   7.8324   7.9868   8.1789
     8.3530   8.3779   8.5048   8.6872   8.8046   8.8234   8.9073   9.1840
     9.7094   9.7427   9.8000  12.3904  13.9733  14.6127  14.8313  15.2108
    15.3952  15.5987  15.8810  16.4600  16.6527  16.7232  17.0405  17.2294
    17.2841  17.8739  18.4075  18.6507  18.6650  18.7871  19.8144  20.0986
    20.4066  20.9214  21.2459  21.6315  22.4565  23.5250  23.5263  23.8766

          k = 0.0000 0.3750 0.0000 (  8822 PWs)   bands (ev):

   -30.9475 -15.9276 -15.9229 -11.7067 -11.5131 -11.0264  -7.9649  -7.8716
    -7.2810  -7.0858  -6.8947  -6.6242  -1.3899  -1.2191  -0.9970  -0.9021
    -0.6471  -0.6409   3.5823   3.7478   4.8951   4.9413   5.0426   5.2162
     5.8634   5.9071   5.9077   5.9361   6.5461   6.5622   6.5757   6.8568
     6.9138   7.1961   7.2508   7.4012   7.6398   7.8180   7.9754   8.2251
     8.3872   8.4081   8.4997   8.6889   8.8566   8.8609   8.9807   9.1878
     9.6921   9.7619   9.7785  12.2808  14.1044  14.6128  14.8200  15.3462
    15.5488  15.6612  15.8178  16.4245  16.7347  16.8363  17.0686  17.1742
    17.4370  17.8876  18.4151  18.6651  18.7720  18.8103  19.8956  20.0335
    20.6524  20.9549  21.2063  21.5438  22.4797  23.2963  23.5744  24.0331

          k = 0.0000 0.4000 0.0000 (  8812 PWs)   bands (ev):

   -30.9466 -15.9201 -15.9154 -11.7386 -11.4949 -11.0251  -7.9198  -7.9048
    -7.2927  -7.0763  -6.8993  -6.6426  -1.3873  -1.2147  -1.0061  -0.9108
    -0.6337  -0.6273   3.5220   3.6914   4.9352   4.9355   5.0571   5.2196
     5.7977   5.8534   5.9086   5.9515   6.4686   6.5431   6.5438   6.8299
     6.9490   7.1619   7.2436   7.3636   7.6431   7.8045   7.9668   8.2597
     8.4264   8.4330   8.4953   8.6892   8.8846   8.9127   9.0438   9.1864
     9.6740   9.7607   9.7794  12.1825  14.2188  14.6136  14.8106  15.4347
    15.6789  15.7394  15.7637  16.3928  16.8125  16.9499  17.0950  17.1264
    17.4955  17.9806  18.4236  18.6503  18.7513  18.9476  19.9821  20.0379
    20.8841  20.9802  21.1753  21.4959  22.4955  22.9840  23.6212  24.0269

          k = 0.0000 0.4250 0.0000 (  8808 PWs)   bands (ev):

   -30.9459 -15.9140 -15.9093 -11.7639 -11.4801 -11.0240  -7.9319  -7.8824
    -7.3047  -7.0683  -6.9020  -6.6573  -1.3850  -1.2102  -1.0135  -0.9187
    -0.6229  -0.6163   3.4740   3.6457   4.9294   4.9722   5.0701   5.2230
     5.7412   5.8094   5.8868   5.9988   6.3956   6.5167   6.5307   6.8055
     6.9822   7.1337   7.2359   7.3332   7.6457   7.7931   7.9604   8.2831
     8.4527   8.4662   8.4917   8.6889   8.9069   8.9569   9.0946   9.1818
     9.6600   9.7468   9.7915  12.0999  14.3129  14.6149  14.8031  15.4829
    15.7143  15.7893  15.8234  16.3658  16.8816  17.0581  17.0877  17.1179
    17.4805  18.1185  18.4328  18.6258  18.7282  19.0483  19.9451  20.2458
    21.0003  21.0948  21.1558  21.4936  22.5042  22.6172  23.6103  23.6615

          k = 0.0000 0.4500 0.0000 (  8816 PWs)   bands (ev):

   -30.9453 -15.9095 -15.9049 -11.7822 -11.4691 -11.0233  -7.9521  -7.8540
    -7.3151  -7.0623  -6.9036  -6.6681  -1.3832  -1.2063  -1.0190  -0.9250
    -0.6150  -0.6081   3.4393   3.6122   4.9246   5.0024   5.0806   5.2257
     5.6969   5.7766   5.8712   6.0477   6.3285   6.4972   6.5223   6.7862
     7.0097   7.1125   7.2284   7.3109   7.6475   7.7845   7.9562   8.2978
     8.4668   8.4891   8.5002   8.6883   8.9232   8.9906   9.1317   9.1764
     9.6503   9.7369   9.7989  12.0372  14.3834  14.6161  14.7977  15.5075
    15.6823  15.8667  15.8945  16.3445  16.9368  17.0593  17.1357  17.1562
    17.4364  18.2434  18.4419  18.5994  18.7068  19.1122  19.9211  20.4981
    21.0214  21.1561  21.2764  21.5312  22.2238  22.5104  23.2214  23.6922

          k = 0.0000 0.4750 0.0000 (  8816 PWs)   bands (ev):

   -30.9450 -15.9067 -15.9022 -11.7933 -11.4624 -11.0228  -7.9644  -7.8362
    -7.3222  -7.0586  -6.9043  -6.6747  -1.3820  -1.2036  -1.0224  -0.9291
    -0.6101  -0.6032   3.4182   3.5918   4.9215   5.0227   5.0874   5.2276
     5.6681   5.7562   5.8617   6.0937   6.2718   6.4852   6.5178   6.7737
     7.0283   7.0994   7.2226   7.2972   7.6486   7.7792   7.9537   8.3060
     8.4753   8.4875   8.5230   8.6879   8.9330   9.0116   9.1544   9.1723
     9.6447   9.7308   9.8028  11.9980  14.4272  14.6171  14.7945  15.5194
    15.6622  15.9151  15.9405  16.3307  16.9727  17.0420  17.1470  17.2411
    17.3815  18.3261  18.4489  18.5793  18.6913  19.1465  19.9078  20.7235
    21.0484  21.2208  21.4087  21.5879  21.8336  22.5261  22.9123  23.7112

          k = 0.0000 0.5000 0.0000 (  8826 PWs)   bands (ev):

   -30.9449 -15.9058 -15.9012 -11.7970 -11.4601 -11.0227  -7.9686  -7.8301
    -7.3248  -7.0574  -6.9046  -6.6769  -1.3816  -1.2026  -1.0235  -0.9305
    -0.6084  -0.6015   3.4111   3.5849   4.9204   5.0299   5.0899   5.2282
     5.6581   5.7494   5.8585   6.1177   6.2442   6.4812   6.5163   6.7693
     7.0350   7.0950   7.2203   7.2926   7.6490   7.7774   7.9529   8.3086
     8.4781   8.4869   8.5310   8.6877   8.9363   9.0186   9.1620   9.1709
     9.6429   9.7288   9.8040  11.9847  14.4420  14.6174  14.7934  15.5230
    15.6554  15.9315  15.9563  16.3259  16.9853  17.0362  17.1508  17.3010
    17.3312  18.3546  18.4516  18.5718  18.6856  19.1572  19.9037  20.8058
    21.0606  21.3920  21.4570  21.5433  21.6203  22.5488  22.7732  23.7177

          k = 0.0250 0.5000 0.0000 (  8808 PWs)   bands (ev):

   -30.9448 -15.9051 -15.9006 -11.7966 -11.4585 -11.0281  -7.9667  -7.8236
    -7.3229  -7.0608  -6.9034  -6.6753  -1.3816  -1.2033  -1.0280  -0.9356
    -0.6172  -0.6095   3.4052   3.5831   4.9267   5.0267   5.0698   5.2311
     5.6318   5.7025   5.8679   6.1183   6.2912   6.4674   6.5362   6.7685
     7.0396   7.0992   7.2272   7.2998   7.6444   7.7644   7.9621   8.3119
     8.4807   8.4862   8.5323   8.7023   8.9342   9.0234   9.1623   9.1996
     9.6456   9.7273   9.8237  11.9903  14.4477  14.5765  14.7839  15.5623
    15.6539  15.9414  15.9627  16.3288  16.8426  17.1014  17.1752  17.3291
    17.3539  18.2675  18.4275  18.5687  18.7709  19.1627  19.8825  20.8216
    21.0409  21.3992  21.4854  21.5488  21.6245  22.5563  22.7742  23.7135

          k = 0.0500 0.5000 0.0000 (  8828 PWs)   bands (ev):

   -30.9445 -15.9031 -15.8986 -11.7953 -11.4539 -11.0442  -7.9612  -7.8044
    -7.3171  -7.0710  -6.8999  -6.6705  -1.3815  -1.2053  -1.0415  -0.9507
    -0.6432  -0.6330   3.3874   3.5775   4.9448   5.0171   5.0179   5.2346
     5.5582   5.5947   5.8943   6.1187   6.3996   6.4477   6.5710   6.7663
     7.0485   7.1111   7.2481   7.3213   7.6378   7.7332   7.9865   8.3217
     8.4841   8.4882   8.5361   8.7412   8.9279   9.0328   9.1631   9.2858
     9.6538   9.7283   9.8770  12.0069  14.4647  14.4717  14.7545  15.6494
    15.6641  15.9709  15.9800  16.3377  16.6830  17.0211  17.3228  17.3252
    17.4422  18.1038  18.3613  18.5594  18.9294  19.1799  19.8223  20.8672
    20.9839  21.4204  21.5645  21.5657  21.6370  22.5773  22.7786  23.7008

          k = 0.0750 0.5000 0.0000 (  8812 PWs)   bands (ev):

   -30.9440 -15.8998 -15.8953 -11.7932 -11.4463 -11.0702  -7.9521  -7.7733
    -7.3077  -7.0879  -6.8941  -6.6626  -1.3815  -1.2087  -1.0635  -0.9753
    -0.6850  -0.6711   3.3572   3.5679   4.9428   4.9730   5.0054   5.2337
     5.4497   5.4653   5.9337   6.1158   6.4294   6.5312   6.6072   6.7634
     7.0505   7.1297   7.2829   7.3565   7.6454   7.6976   8.0219   8.3371
     8.4807   8.5004   8.5420   8.7932   8.9180   9.0426   9.1640   9.4223
     9.6677   9.7364   9.9599  12.0342  14.3312  14.4926  14.7054  15.6420
    15.7998  15.9999  16.0195  16.3533  16.5423  16.9464  17.3122  17.4569
    17.5198  17.9248  18.2721  18.5441  19.1009  19.2101  19.7316  20.8944
    20.9385  21.4543  21.5887  21.6574  21.6848  22.6076  22.7901  23.6801

          k = 0.1000 0.5000 0.0000 (  8826 PWs)   bands (ev):

   -30.9432 -15.8953 -15.8907 -11.7903 -11.4359 -11.1050  -7.9396  -7.7316
    -7.2947  -7.1109  -6.8862  -6.6516  -1.3818  -1.2132  -1.0936  -1.0090
    -0.7407  -0.7223   3.3143   3.5538   4.8555   4.9915   5.0069   5.2278
     5.3186   5.3328   5.9805   6.1064   6.4126   6.6376   6.6696   6.7609
     7.0381   7.1529   7.3319   7.4042   7.6680   7.6798   8.0671   8.3577
     8.4762   8.5170   8.5497   8.8471   8.9048   9.0536   9.1646   9.5959
     9.6878   9.7519  10.0706  12.0714  14.1734  14.5307  14.6390  15.6317
    15.9483  16.0008  16.0855  16.3773  16.4468  16.8861  17.2968  17.5561
    17.5637  17.7442  18.1934  18.5231  19.2550  19.2736  19.6219  20.7799
    21.0295  21.4981  21.6187  21.6848  21.8235  22.6396  22.8167  23.6522

          k = 0.1250 0.5000 0.0000 (  8828 PWs)   bands (ev):

   -30.9424 -15.8898 -15.8851 -11.7867 -11.4227 -11.1470  -7.9239  -7.6808
    -7.2783  -7.1396  -6.8765  -6.6380  -1.3829  -1.2190  -1.1309  -1.0508
    -0.8077  -0.7844   3.2583   3.5343   4.7622   4.9779   5.0322   5.1756
     5.2165   5.2182   6.0286   6.0885   6.3973   6.6559   6.7604   6.8085
     7.0164   7.1784   7.3947   7.4630   7.6504   7.7420   8.1214   8.3831
     8.4707   8.5375   8.5589   8.8894   8.8959   9.0669   9.1644   9.7141
     9.7742   9.7947  10.2065  12.1177  14.0080  14.5582  14.5777  15.6186
    15.9533  16.0925  16.1658  16.4154  16.4297  16.8461  17.2737  17.5168
    17.5700  17.6416  18.1657  18.4970  19.3152  19.4443  19.5052  20.6486
    21.1325  21.5477  21.6526  21.7176  21.9586  22.6620  22.8713  23.6180

          k = 0.1500 0.5000 0.0000 (  8844 PWs)   bands (ev):

   -30.9413 -15.8832 -15.8785 -11.7825 -11.4072 -11.1948  -7.9054  -7.6228
    -7.2588  -7.1734  -6.8651  -6.6218  -1.3852  -1.2261  -1.1747  -1.0995
    -0.8832  -0.8548   3.1893   3.5086   4.6686   4.9657   4.9921   5.0288
     5.1740   5.2068   6.0618   6.0725   6.3830   6.6561   6.7637   6.9448
     6.9980   7.2039   7.4709   7.5310   7.6475   7.8247   8.1834   8.4128
     8.4641   8.5614   8.5691   8.8724   8.9365   9.0835   9.1629   9.7468
     9.8025  10.0090  10.3627  12.1722  13.8405  14.4662  14.6322  15.6029
    15.8622  16.2103  16.2539  16.4815  16.4883  16.8340  17.2292  17.4006
    17.4192  17.6898  18.1964  18.4678  19.3888  19.3922  19.6115  20.5088
    21.2375  21.5980  21.6893  21.7529  22.0665  22.6624  22.9694  23.5785

          k = 0.1750 0.5000 0.0000 (  8842 PWs)   bands (ev):

   -30.9402 -15.8758 -15.8711 -11.7778 -11.3895 -11.2467  -7.8845  -7.5595
    -7.2365  -7.2116  -6.8524  -6.6035  -1.3892  -1.2350  -1.2237  -1.1541
    -0.9638  -0.9305   3.1078   3.4754   4.5792   4.8851   4.8856   4.9554
     5.1948   5.2065   6.0276   6.1078   6.3684   6.6374   6.7727   6.9922
     7.0767   7.2270   7.5593   7.6060   7.6598   7.9196   8.2512   8.4460
     8.4564   8.5799   8.5881   8.8551   8.9686   9.1044   9.1597   9.7856
     9.8359  10.2314  10.5334  12.2339  13.6745  14.3657  14.6919  15.5850
    15.7566  16.2812  16.3379  16.5887  16.5948  16.8603  17.1275  17.2409
    17.3304  17.7118  18.2577  18.4397  19.2916  19.4709  19.7740  20.3689
    21.3309  21.6436  21.7316  21.7860  22.1335  22.6337  23.1185  23.5343

          k = 0.2000 0.5000 0.0000 (  8846 PWs)   bands (ev):

   -30.9389 -15.8678 -15.8630 -11.7727 -11.3700 -11.3010  -7.8616  -7.4926
    -7.2531  -7.2119  -6.8386  -6.5834  -1.3960  -1.2769  -1.2474  -1.2132
    -1.0462  -1.0072   3.0155   3.4336   4.4972   4.7500   4.7694   4.9470
     5.1833   5.2565   5.9878   6.1316   6.3510   6.6075   6.7883   6.9987
     7.2031   7.2464   7.6580   7.6855   7.6859   8.0204   8.3221   8.4476
     8.4818   8.5905   8.6170   8.8384   8.9932   9.1304   9.1548   9.8296
     9.8737  10.4559  10.7124  12.3019  13.5130  14.2595  14.7535  15.5651
    15.6545  16.3110  16.4029  16.7241  16.7308  16.9292  16.9802  17.0741
    17.2939  17.7147  18.3266  18.4202  19.2080  19.5523  19.9303  20.2393
    21.3946  21.6792  21.7874  21.8087  22.1625  22.5836  23.3109  23.4855

          k = 0.2250 0.5000 0.0000 (  8846 PWs)   bands (ev):

   -30.9376 -15.8593 -15.8545 -11.7673 -11.3563 -11.3491  -7.8373  -7.4241
    -7.2972  -7.1853  -6.8243  -6.5619  -1.4070  -1.3328  -1.2752  -1.2669
    -1.1266  -1.0789   2.9148   3.3824   4.4242   4.6278   4.6574   4.9402
     5.1730   5.3096   5.9446   6.1432   6.3274   6.5780   6.8106   7.0120
     7.2614   7.3231   7.7237   7.7649   7.7671   8.1231   8.3935   8.4377
     8.5189   8.6000   8.6477   8.8239   9.0117   9.1479   9.1623   9.8778
     9.9148  10.6772  10.8943  12.3754  13.3585  14.1495  14.8121  15.5440
    15.5650  16.3129  16.4374  16.8244  16.8673  16.8771  16.8850  17.0877
    17.2748  17.7094  18.3925  18.4198  19.1425  19.6148  20.0777  20.1381
    21.4139  21.7009  21.8098  21.8631  22.1651  22.5354  23.4317  23.5309

          k = 0.2500 0.5000 0.0000 (  8850 PWs)   bands (ev):

   -30.9362 -15.8505 -15.8457 -11.7618 -11.4112 -11.3274  -7.8120  -7.3557
    -7.3427  -7.1573  -6.8098  -6.5396  -1.4246  -1.3901  -1.3387  -1.3005
    -1.2001  -1.1358   2.8088   3.3218   4.3607   4.5215   4.5531   4.9347
     5.1643   5.3617   5.9001   6.1437   6.2955   6.5574   6.8383   7.0272
     7.2723   7.4360   7.7704   7.8482   7.8773   8.2248   8.4268   8.4623
     8.5563   8.6072   8.6795   8.8131   9.0250   9.1391   9.2000   9.9287
     9.9583  10.8910  11.0742  12.4536  13.2137  14.0376  14.8598  15.4956
    15.5224  16.2916  16.4231  16.6719  16.7538  17.0083  17.0441  17.2536
    17.2629  17.7116  18.4490  18.4528  19.0935  19.6284  20.0955  20.2114
    21.3885  21.7064  21.7813  21.9538  22.1520  22.5147  23.3723  23.7638

          k = 0.2750 0.5000 0.0000 (  8858 PWs)   bands (ev):

   -30.9348 -15.8418 -15.8369 -11.7563 -11.4643 -11.3052  -7.7865  -7.3885
    -7.2889  -7.1285  -6.7955  -6.5169  -1.4525  -1.4475  -1.4021  -1.3530
    -1.2613  -1.1714   2.7008   3.2530   4.3063   4.4325   4.4579   4.9301
     5.1573   5.4111   5.8560   6.1352   6.2561   6.5485   6.8695   7.0412
     7.2797   7.5410   7.8231   7.9264   7.9923   8.3234   8.4150   8.5258
     8.5934   8.6107   8.7121   8.8075   9.0341   9.1286   9.2429   9.9806
    10.0029  11.0935  11.2482  12.5359  13.0811  13.9252  14.8849  15.4554
    15.5012  16.2491  16.3312  16.5263  16.7096  17.1434  17.1856  17.2559
    17.4464  17.7453  18.5123  18.5154  19.0579  19.5813  20.1258  20.3242
    21.3277  21.6953  21.7306  22.0483  22.1303  22.5321  23.3074  23.8976

          k = 0.3000 0.5000 0.0000 (  8856 PWs)   bands (ev):

   -30.9335 -15.8332 -15.8283 -11.7509 -11.5146 -11.2831  -7.7612  -7.4336
    -7.2253  -7.0996  -6.7819  -6.4945  -1.5035  -1.4926  -1.4640  -1.4174
    -1.3061  -1.1903   2.5945   3.1785   4.2603   4.3605   4.3726   4.9263
     5.1523   5.4565   5.8137   6.1204   6.2130   6.5495   6.9021   7.0524
     7.2844   7.6378   7.8794   7.9994   8.1069   8.4025   8.4174   8.5793
     8.6102   8.6324   8.7450   8.8081   9.0395   9.1164   9.2893  10.0317
    10.0474  11.2815  11.4127  12.6214  12.9633  13.8133  14.8767  15.4518
    15.4815  16.1888  16.1896  16.3893  16.7299  17.2530  17.2716  17.2825
    17.6382  17.8341  18.5862  18.6209  19.0331  19.5073  20.2017  20.4060
    21.2419  21.6686  21.6805  22.1046  22.1356  22.5810  23.2386  23.6166

          k = 0.3250 0.5000 0.0000 (  8866 PWs)   bands (ev):

   -30.9322 -15.8250 -15.8201 -11.7458 -11.5612 -11.2617  -7.7370  -7.4768
    -7.1661  -7.0712  -6.7693  -6.4728  -1.5568  -1.5415  -1.5228  -1.4844
    -1.3363  -1.2006   2.4930   3.1017   4.2218   4.2975   4.3038   4.9229
     5.1488   5.4973   5.7743   6.1018   6.1698   6.5574   6.9341   7.0602
     7.2871   7.7258   7.9367   8.0650   8.2181   8.3895   8.5058   8.6064
     8.6179   8.6766   8.7779   8.8146   9.0416   9.1026   9.3366  10.0804
    10.0905  11.4525  11.5648  12.7094  12.8628  13.7030  14.8341  15.4644
    15.4829  16.0388  16.1162  16.2621  16.7799  17.2537  17.3334  17.3932
    17.7955  17.9673  18.7023  18.7613  19.0180  19.4475  20.2966  20.4474
    21.1404  21.6284  21.6550  22.0775  22.2036  22.6501  23.1690  23.3324

          k = 0.3500 0.5000 0.0000 (  8862 PWs)   bands (ev):

   -30.9311 -15.8174 -15.8125 -11.7410 -11.6032 -11.2416  -7.7143  -7.5170
    -7.1125  -7.0441  -6.7581  -6.4525  -1.6060  -1.5925  -1.5770  -1.5480
    -1.3572  -1.2065   2.3993   3.0264   4.1901   4.2327   4.2603   4.9199
     5.1468   5.5331   5.7386   6.0816   6.1293   6.5698   6.9642   7.0645
     7.2885   7.8051   7.9930   8.1206   8.3230   8.3764   8.5874   8.6012
     8.6437   8.7234   8.8103   8.8255   9.0404   9.0874   9.3818  10.1251
    10.1308  11.6041  11.7019  12.7815  12.7986  13.5954  14.7664  15.4509
    15.5370  15.8957  16.0380  16.1456  16.8465  17.2575  17.3628  17.5080
    17.8867  18.0951  18.8883  18.9151  19.0268  19.4395  20.3986  20.4459
    21.0318  21.5773  21.6659  22.0508  22.2311  22.7296  23.0722  23.1023

          k = 0.3750 0.5000 0.0000 (  8862 PWs)   bands (ev):

   -30.9300 -15.8106 -15.8056 -11.7368 -11.6398 -11.2234  -7.6940  -7.5531
    -7.0654  -7.0191  -6.7486  -6.4341  -1.6500  -1.6401  -1.6255  -1.6052
    -1.3727  -1.2101   2.3160   2.9563   4.1643   4.1784   4.2276   4.9173
     5.1460   5.5635   5.7073   6.0616   6.0932   6.5843   6.9911   7.0658
     7.2889   7.8756   8.0460   8.1637   8.3637   8.4186   8.5971   8.6614
     8.6616   8.7676   8.8387   8.8417   9.0359   9.0708   9.4221  10.1645
    10.1672  11.7348  11.8218  12.7207  12.8873  13.4921  14.6844  15.4419
    15.6018  15.7673  15.9607  16.0407  16.9245  17.2636  17.3907  17.6147
    17.9088  18.1671  18.9675  19.1431  19.1662  19.5163  20.4109  20.5028
    20.9240  21.5179  21.7090  22.0253  22.1773  22.8119  22.8808  23.0424

          k = 0.4000 0.5000 0.0000 (  8864 PWs)   bands (ev):

   -30.9291 -15.8048 -15.7998 -11.7332 -11.6705 -11.2076  -7.6764  -7.5842
    -7.0258  -6.9970  -6.7408  -6.4183  -1.6876  -1.6814  -1.6669  -1.6540
    -1.3848  -1.2122   2.2450   2.8947   4.1344   4.1439   4.2035   4.9150
     5.1459   5.5884   5.6810   6.0434   6.0626   6.5993   7.0140   7.0647
     7.2888   7.9376   8.0937   8.1923   8.3524   8.5022   8.5959   8.6735
     8.7277   8.8065   8.8522   8.8717   9.0282   9.0530   9.4555  10.1976
    10.1986  11.8431  11.9225  12.6805  12.9726  13.3954  14.5973  15.4381
    15.6575  15.6678  15.8901  15.9487  17.0105  17.2709  17.4268  17.7106
    17.8815  18.1649  18.9666  19.3796  19.4409  19.6826  20.3582  20.6076
    20.8245  21.4532  21.7703  22.0017  22.0118  22.7933  22.8910  22.9917

          k = 0.4250 0.5000 0.0000 (  8856 PWs)   bands (ev):

   -30.9284 -15.8001 -15.7951 -11.7303 -11.6949 -11.1947  -7.6621  -7.6093
    -6.9943  -6.9787  -6.7349  -6.4053  -1.7179  -1.7145  -1.7002  -1.6931
    -1.3942  -1.2135   2.1881   2.8441   4.1004   4.1284   4.1864   4.9132
     5.1462   5.6077   5.6600   6.0280   6.0382   6.6130   7.0323   7.0622
     7.2884   7.9912   8.1338   8.2051   8.3440   8.5712   8.5979   8.6816
     8.7848   8.8386   8.8644   8.8996   9.0172   9.0343   9.4810  10.2239
    10.2240  11.9281  12.0027  12.6592  13.0505  13.3091  14.5139  15.4392
    15.5692  15.7274  15.8308  15.8713  17.1004  17.2784  17.4742  17.7922
    17.8253  18.1073  18.9618  19.6066  19.7507  19.9033  20.3030  20.7135
    20.7404  21.3868  21.7754  21.8345  21.9800  22.7761  22.9514  22.9610

          k = 0.4500 0.5000 0.0000 (  8842 PWs)   bands (ev):

   -30.9279 -15.7966 -15.7917 -11.7282 -11.7126 -11.1851  -7.6516  -7.6278
    -6.9714  -6.9649  -6.7308  -6.3958  -1.7401  -1.7387  -1.7247  -1.7216
    -1.4011  -1.2142   2.1466   2.8067   4.0763   4.1176   4.1751   4.9119
     5.1467   5.6215   5.6448   6.0164   6.0206   6.6241   7.0456   7.0594
     7.2880   8.0357   8.1644   8.2041   8.3392   8.6019   8.6231   8.6865
     8.8318   8.8626   8.8739   8.9251   9.0036   9.0149   9.4984  10.2427
    10.2428  11.9890  12.0609  12.6526  13.1148  13.2384  14.4434  15.4440
    15.5046  15.7749  15.7862  15.8110  17.1880  17.2849  17.5315  17.7565
    17.8550  18.0242  18.9574  19.8258  20.0363  20.1243  20.2564  20.6788
    20.8213  21.3229  21.5287  21.8891  21.9602  22.7829  22.9199  23.0164

          k = 0.4750 0.5000 0.0000 (  8854 PWs)   bands (ev):

   -30.9275 -15.7945 -15.7895 -11.7269 -11.7233 -11.1793  -7.6452  -7.6391
    -6.9575  -6.9563  -6.7284  -6.3900  -1.7536  -1.7533  -1.7396  -1.7389
    -1.4052  -1.2145   2.1213   2.7837   4.0620   4.1112   4.1686   4.9110
     5.1471   5.6298   5.6356   6.0092   6.0098   6.6313   7.0537   7.0572
     7.2877   8.0682   8.1835   8.1955   8.3371   8.6055   8.6554   8.6891
     8.8658   8.8775   8.8800   8.9476   8.9898   8.9958   9.5084  10.2542
    10.2542  12.0254  12.0961  12.6539  13.1582  13.1908  14.3955  15.4496
    15.4652  15.7586  15.7717  15.8055  17.2601  17.2892  17.5887  17.6938
    17.8949  17.9448  18.9543  20.0015  20.2258  20.2490  20.2870  20.6457
    20.9223  21.2680  21.3257  21.9254  21.9441  22.7921  22.8635  22.9340

          k = 0.5000 0.5000 0.0000 (  8856 PWs)   bands (ev):

   -30.9274 -15.7938 -15.7888 -11.7268 -11.7265 -11.1773  -7.6431  -7.6429
    -6.9534  -6.9529  -6.7276  -6.3880  -1.7583  -1.7582  -1.7447  -1.7446
    -1.4066  -1.2146   2.1128   2.7760   4.0572   4.1090   4.1665   4.9108
     5.1473   5.6325   5.6326   6.0062   6.0068   6.6338   7.0564   7.0564
     7.2876   8.0811   8.1900   8.1901   8.3366   8.6069   8.6665   8.6899
     8.8793   8.8821   8.8825   8.9613   8.9831   8.9831   9.5116  10.2580
    10.2580  12.0375  12.1080  12.6555  13.1736  13.1737  14.3784  15.4519
    15.4521  15.7492  15.7579  15.8160  17.2907  17.2908  17.6169  17.6660
    17.9081  17.9086  18.9532  20.0733  20.2151  20.3300  20.3461  20.6381
    20.9715  21.2406  21.2418  21.9372  21.9381  22.7956  22.7958  22.9148

          k = 0.5000 0.4750 0.0000 (  8854 PWs)   bands (ev):

   -30.9275 -15.7945 -15.7895 -11.7273 -11.7229 -11.1793  -7.6451  -7.6392
    -6.9581  -6.9558  -6.7284  -6.3900  -1.7537  -1.7533  -1.7397  -1.7388
    -1.4052  -1.2145   2.1213   2.7837   4.0620   4.1112   4.1686   4.9110
     5.1471   5.6297   5.6357   6.0087   6.0104   6.6313   7.0537   7.0572
     7.2877   8.0681   8.1835   8.1955   8.3371   8.6055   8.6554   8.6891
     8.8658   8.8770   8.8805   8.9476   8.9898   8.9958   9.5084  10.2542
    10.2542  12.0254  12.0961  12.6538  13.1583  13.1906  14.3955  15.4494
    15.4653  15.7586  15.7717  15.8055  17.2601  17.2892  17.5886  17.6938
    17.8944  17.9453  18.9543  20.0016  20.2258  20.2490  20.2870  20.6458
    20.9222  21.2669  21.3269  21.9245  21.9448  22.7918  22.8637  22.9341

          k = 0.5000 0.4500 0.0000 (  8842 PWs)   bands (ev):

   -30.9279 -15.7966 -15.7917 -11.7286 -11.7122 -11.1851  -7.6515  -7.6279
    -6.9719  -6.9643  -6.7308  -6.3958  -1.7401  -1.7386  -1.7248  -1.7215
    -1.4011  -1.2142   2.1466   2.8067   4.0763   4.1176   4.1751   4.9119
     5.1467   5.6215   5.6449   6.0159   6.0211   6.6241   7.0456   7.0594
     7.2880   8.0357   8.1643   8.2042   8.3392   8.6019   8.6231   8.6865
     8.8318   8.8622   8.8744   8.9252   9.0035   9.0149   9.4984  10.2427
    10.2428  11.9890  12.0609  12.6525  13.1150  13.2383  14.4434  15.4438
    15.5047  15.7749  15.7862  15.8110  17.1880  17.2849  17.5314  17.7565
    17.8546  18.0247  18.9574  19.8258  20.0365  20.1243  20.2564  20.6788
    20.8211  21.3219  21.5299  21.8883  21.9607  22.7826  22.9199  23.0164

          k = 0.5000 0.4250 0.0000 (  8856 PWs)   bands (ev):

   -30.9284 -15.8001 -15.7951 -11.7307 -11.6945 -11.1947  -7.6620  -7.6094
    -6.9948  -6.9781  -6.7349  -6.4053  -1.7179  -1.7145  -1.7003  -1.6930
    -1.3942  -1.2135   2.1881   2.8441   4.1004   4.1284   4.1865   4.9132
     5.1462   5.6076   5.6601   6.0275   6.0388   6.6130   7.0323   7.0622
     7.2884   7.9911   8.1338   8.2051   8.3441   8.5712   8.5980   8.6816
     8.7847   8.8382   8.8648   8.8997   9.0172   9.0343   9.4809  10.2239
    10.2240  11.9282  12.0027  12.6591  13.0506  13.3090  14.5139  15.4390
    15.5693  15.7274  15.8308  15.8713  17.1004  17.2785  17.4741  17.7918
    17.8252  18.1079  18.9618  19.6065  19.7509  19.9034  20.3030  20.7132
    20.7404  21.3860  21.7766  21.8337  21.9803  22.7758  22.9513  22.9609

          k = 0.5000 0.4000 0.0000 (  8864 PWs)   bands (ev):

   -30.9291 -15.8048 -15.7998 -11.7336 -11.6702 -11.2076  -7.6763  -7.5843
    -7.0263  -6.9964  -6.7408  -6.4183  -1.6877  -1.6813  -1.6670  -1.6539
    -1.3848  -1.2122   2.2450   2.8946   4.1343   4.1439   4.2035   4.9150
     5.1459   5.5883   5.6811   6.0428   6.0631   6.5993   7.0140   7.0647
     7.2888   7.9375   8.0936   8.1923   8.3524   8.5023   8.5960   8.6735
     8.7275   8.8061   8.8526   8.8717   9.0282   9.0530   9.4555  10.1977
    10.1986  11.8433  11.9226  12.6803  12.9727  13.3953  14.5973  15.4379
    15.6576  15.6677  15.8901  15.9488  17.0104  17.2710  17.4266  17.7104
    17.8813  18.1655  18.9666  19.3795  19.4413  19.6827  20.3583  20.6073
    20.8246  21.4525  21.7695  22.0019  22.0129  22.7932  22.8908  22.9916

          k = 0.5000 0.3750 0.0000 (  8862 PWs)   bands (ev):

   -30.9300 -15.8106 -15.8056 -11.7372 -11.6394 -11.2234  -7.6938  -7.5533
    -7.0659  -7.0185  -6.7485  -6.4341  -1.6501  -1.6401  -1.6256  -1.6051
    -1.3727  -1.2100   2.3159   2.9562   4.1643   4.1784   4.2276   4.9173
     5.1460   5.5634   5.7074   6.0611   6.0937   6.5843   6.9911   7.0658
     7.2889   7.8755   8.0460   8.1638   8.3637   8.4187   8.5972   8.6613
     8.6615   8.7672   8.8391   8.8418   9.0360   9.0708   9.4221  10.1645
    10.1672  11.7350  11.8218  12.7205  12.8874  13.4920  14.6843  15.4417
    15.6018  15.7674  15.9607  16.0408  16.9244  17.2637  17.3905  17.6145
    17.9085  18.1677  18.9676  19.1435  19.1660  19.5165  20.4111  20.5024
    20.9241  21.5172  21.7082  22.0254  22.1781  22.8117  22.8810  23.0423

          k = 0.5000 0.3500 0.0000 (  8862 PWs)   bands (ev):

   -30.9311 -15.8174 -15.8125 -11.7414 -11.6028 -11.2416  -7.7142  -7.5172
    -7.1129  -7.0436  -6.7581  -6.4525  -1.6061  -1.5925  -1.5771  -1.5480
    -1.3571  -1.2065   2.3993   3.0262   4.1900   4.2327   4.2604   4.9199
     5.1468   5.5331   5.7387   6.0810   6.1299   6.5698   6.9642   7.0645
     7.2885   7.8049   7.9930   8.1206   8.3231   8.3764   8.5873   8.6013
     8.6436   8.7231   8.8104   8.8259   9.0404   9.0874   9.3818  10.1251
    10.1308  11.6044  11.7020  12.7813  12.7987  13.5953  14.7663  15.4506
    15.5369  15.8959  16.0380  16.1456  16.8463  17.2576  17.3625  17.5079
    17.8863  18.0957  18.8887  18.9150  19.0267  19.4397  20.3983  20.4461
    21.0319  21.5767  21.6651  22.0508  22.2315  22.7293  23.0727  23.1023

          k = 0.5000 0.3250 0.0000 (  8866 PWs)   bands (ev):

   -30.9322 -15.8250 -15.8201 -11.7461 -11.5609 -11.2617  -7.7368  -7.4770
    -7.1665  -7.0707  -6.7693  -6.4728  -1.5569  -1.5415  -1.5228  -1.4844
    -1.3362  -1.2005   2.4929   3.1015   4.2218   4.2974   4.3039   4.9229
     5.1488   5.4974   5.7743   6.1012   6.1704   6.5574   6.9341   7.0602
     7.2871   7.7257   7.9367   8.0650   8.2182   8.3895   8.5056   8.6065
     8.6178   8.6764   8.7780   8.8150   9.0417   9.1026   9.3366  10.0804
    10.0905  11.4527  11.5649  12.7094  12.8626  13.7029  14.8339  15.4641
    15.4828  16.0391  16.1162  16.2621  16.7797  17.2538  17.3331  17.3933
    17.7951  17.9677  18.7027  18.7610  19.0180  19.4478  20.2964  20.4476
    21.1405  21.6280  21.6543  22.0775  22.2036  22.6497  23.1690  23.3332

          k = 0.5000 0.3000 0.0000 (  8856 PWs)   bands (ev):

   -30.9335 -15.8332 -15.8283 -11.7512 -11.5144 -11.2831  -7.7611  -7.4338
    -7.2256  -7.0991  -6.7819  -6.4945  -1.5036  -1.4926  -1.4641  -1.4174
    -1.3060  -1.1903   2.5944   3.1783   4.2602   4.3606   4.3725   4.9263
     5.1523   5.4566   5.8138   6.1198   6.2136   6.5495   6.9021   7.0524
     7.2844   7.6376   7.8794   7.9995   8.1071   8.4025   8.4172   8.5791
     8.6104   8.6323   8.7452   8.8084   9.0397   9.1164   9.2893  10.0318
    10.0474  11.2818  11.4129  12.6214  12.9632  13.8132  14.8763  15.4518
    15.4813  16.1888  16.1899  16.3894  16.7295  17.2531  17.2718  17.2823
    17.6380  17.8344  18.5864  18.6205  19.0331  19.5077  20.2015  20.4062
    21.2421  21.6683  21.6799  22.1045  22.1355  22.5806  23.2387  23.6175

          k = 0.5000 0.2750 0.0000 (  8858 PWs)   bands (ev):

   -30.9348 -15.8418 -15.8369 -11.7566 -11.4640 -11.3051  -7.7863  -7.3888
    -7.2892  -7.1280  -6.7955  -6.5170  -1.4525  -1.4476  -1.4022  -1.3529
    -1.2612  -1.1713   2.7007   3.2528   4.3062   4.4326   4.4578   4.9302
     5.1574   5.4112   5.8560   6.1346   6.2566   6.5485   6.8695   7.0412
     7.2797   7.5408   7.8231   7.9264   7.9925   8.3231   8.4150   8.5255
     8.5934   8.6110   8.7123   8.8078   9.0343   9.1286   9.2429   9.9806
    10.0029  11.0938  11.2485  12.5359  13.0809  13.9251  14.8844  15.4553
    15.5010  16.2491  16.3318  16.5263  16.7090  17.1436  17.1856  17.2560
    17.4462  17.7453  18.5123  18.5150  19.0579  19.5816  20.1258  20.3243
    21.3280  21.6950  21.7300  22.0482  22.1302  22.5315  23.3075  23.8984

          k = 0.5000 0.2500 0.0000 (  8850 PWs)   bands (ev):

   -30.9362 -15.8505 -15.8457 -11.7621 -11.4109 -11.3273  -7.8118  -7.3559
[...]
    15.0078  15.1174  15.9486  16.0531  16.1288  16.1648  16.9716  16.9875
    17.3786  17.7304  17.9129  17.9228  18.6147  18.6237  19.2689  20.2395
    20.2947  20.4464  20.6027  21.8488  22.2975  22.3355  22.4959  22.7419

          k = 0.0000 0.0000 0.0000 (  8853 PWs)   bands (ev):

   -30.9629 -16.0503 -16.0447 -11.7820 -11.0475 -11.0475  -8.7025  -7.5020
    -7.3890  -7.0834  -6.6631  -6.3088  -1.3859  -1.1633  -0.8574  -0.8574
    -0.8551  -0.8551   4.5065   4.5066   4.7414   4.9254   4.9258   5.1149
     5.8495   6.4919   7.0359   7.0359   7.0423   7.1085   7.1192   7.3208
     7.3212   7.3522   7.3668   7.3670   7.8651   7.8662   7.8705   7.9842
     8.0168   8.0170   8.2577   8.3153   8.4916   8.5786   8.5840   8.5843
     8.7099  10.1739  10.1739  12.2952  13.1521  13.3013  13.4696  14.4099
    15.0094  15.1046  16.0411  16.0510  16.0511  16.1620  16.9917  16.9921
    17.3683  17.6992  17.9036  17.9105  18.6234  18.6244  19.2854  20.2634
    20.4236  20.4427  20.4429  21.8400  22.3206  22.3217  22.4915  22.6752

          k = 0.0250 0.0250 0.0000 (  8837 PWs)   bands (ev):

   -30.9627 -16.0486 -16.0430 -11.7785 -11.0544 -11.0525  -8.6903  -7.5031
    -7.3853  -7.0872  -6.6674  -6.3136  -1.3866  -1.1656  -0.8639  -0.8610
    -0.8501  -0.8461   4.5018   4.5096   4.7308   4.9196   4.9218   5.1187
     5.8483   6.4833   7.0014   7.0046   7.0316   7.0422   7.1273   7.2301
     7.3773   7.3794   7.3971   7.4562   7.8123   7.8566   7.8768   7.9383
     7.9603   8.0585   8.2994   8.3232   8.5549   8.5593   8.5799   8.6092
     8.7206  10.1587  10.1729  12.3215  13.1797  13.2974  13.4957  14.4260
    15.0061  15.1302  15.9312  16.0058  16.1674  16.1808  16.9447  16.9933
    17.3883  17.7534  17.9223  17.9394  18.6059  18.6233  19.2547  20.2216
    20.2387  20.4468  20.6864  21.8577  22.3063  22.3189  22.5001  22.8041

          k = 0.0500 0.0500 0.0000 (  8847 PWs)   bands (ev):

   -30.9620 -16.0435 -16.0379 -11.7681 -11.0745 -11.0673  -8.6541  -7.5066
    -7.3745  -7.0986  -6.6798  -6.3274  -1.3881  -1.1713  -0.8831  -0.8786
    -0.8297  -0.8210   4.4873   4.5181   4.6942   4.9017   4.9173   5.1285
     5.8447   6.4571   6.8650   6.9060   6.9832   7.0152   7.1472   7.1498
     7.3972   7.4059   7.5166   7.5810   7.6932   7.8389   7.8641   7.8728
     7.9107   8.1015   8.2980   8.3932   8.4988   8.5763   8.6935   8.7052
     8.7492  10.1157  10.1699  12.3980  13.2619  13.2850  13.5736  14.4720
    14.9961  15.2051  15.8514  15.8830  16.1817  16.3158  16.8459  16.9969
    17.4357  17.8318  17.9776  18.0593  18.5537  18.6278  19.1730  20.0527
    20.1803  20.4568  20.9795  21.9101  22.3095  22.3120  22.5215  23.1023

          k = 0.0750 0.0750 0.0000 (  8831 PWs)   bands (ev):

   -30.9609 -16.0352 -16.0296 -11.7510 -11.1061 -11.0912  -8.5957  -7.5122
    -7.3571  -7.1172  -6.6991  -6.3489  -1.3893  -1.1788  -0.9144  -0.9073
    -0.8009  -0.7851   4.4631   4.5302   4.6253   4.8727   4.9225   5.1417
     5.8393   6.4108   6.6981   6.7641   6.9296   6.9794   7.0973   7.1659
     7.3923   7.4419   7.5475   7.6162   7.7172   7.7849   7.8425   7.8466
     7.9340   8.1331   8.2858   8.4193   8.4448   8.5707   8.7888   8.8375
     8.8954  10.0520  10.1658  12.5178  13.2627  13.3964  13.7020  14.5410
    14.9795  15.3233  15.7093  15.8148  16.1999  16.4313  16.7475  17.0006
    17.4856  17.8788  18.0660  18.2358  18.4732  18.6698  19.0672  19.9256
    20.1144  20.4731  21.3105  21.9955  22.3006  22.3121  22.5426  23.4646

          k = 0.1000 0.1000 0.0000 (  8837 PWs)   bands (ev):

   -30.9595 -16.0239 -16.0184 -11.7275 -11.1472 -11.1233  -8.5179  -7.5199
    -7.3339  -7.1423  -6.7235  -6.3758  -1.3889  -1.1862  -0.9565  -0.9463
    -0.7697  -0.7451   4.4289   4.5243   4.5431   4.8336   4.9400   5.1572
     5.8325   6.3342   6.5340   6.5871   6.8729   6.9350   7.0728   7.1674
     7.3573   7.4086   7.4624   7.6680   7.7547   7.8426   7.8498   7.9048
     7.9500   8.1600   8.2727   8.3512   8.4788   8.5635   8.8327   9.0190
     9.1052   9.9774  10.1619  12.6723  13.2296  13.5789  13.8792  14.6171
    14.9617  15.4755  15.5089  15.8226  16.2165  16.5131  16.6712  17.0010
    17.5192  17.9159  18.1787  18.3460  18.3721  18.8196  18.9700  19.8370
    20.0605  20.4951  21.6725  22.1089  22.2272  22.2887  22.5439  23.7404

          k = 0.1250 0.1250 0.0000 (  8815 PWs)   bands (ev):

   -30.9576 -16.0099 -16.0045 -11.6982 -11.1952 -11.1625  -8.4236  -7.5295
    -7.3059  -7.1731  -6.7507  -6.4057  -1.3864  -1.1929  -1.0080  -0.9945
    -0.7431  -0.7080   4.3837   4.3955   4.5533   4.7859   4.9681   5.1744
     5.8245   6.2008   6.3814   6.4089   6.8167   6.9015   7.0504   7.1489
     7.2856   7.3030   7.4503   7.6975   7.7907   7.8349   7.9520   7.9823
     8.0100   8.1967   8.2613   8.3220   8.5053   8.5550   8.8767   9.2217
     9.3260   9.9016  10.1594  12.8527  13.1875  13.8027  14.1029  14.6635
    14.9673  15.3011  15.6481  15.8695  16.2307  16.5572  16.6203  16.9937
    17.5286  17.9401  18.2597  18.3010  18.3840  18.9069  19.0677  19.7799
    20.0309  20.5169  22.0198  22.0215  22.2318  22.3167  22.5212  23.9175

          k = 0.1500 0.1500 0.0000 (  8825 PWs)   bands (ev):

   -30.9555 -15.9937 -15.9883 -11.6636 -11.2477 -11.2074  -8.3160  -7.5407
    -7.2744  -7.2088  -6.7783  -6.4359  -1.3819  -1.1986  -1.0672  -1.0505
    -0.7275  -0.6813   4.2425   4.3257   4.5573   4.7312   5.0052   5.1919
     5.8148   6.0158   6.1555   6.3304   6.7637   6.8866   7.0021   7.1107
     7.2070   7.2438   7.4247   7.7379   7.7832   7.8720   7.9816   8.1116
     8.1266   8.2366   8.2531   8.3400   8.5284   8.5462   8.9184   9.4381
     9.5527   9.8328  10.1603  13.0410  13.1495  14.0533  14.3701  14.6346
    15.0293  15.1065  15.8204  15.9463  16.2529  16.5710  16.5877  16.9728
    17.5152  17.9321  18.1455  18.4158  18.4288  18.8883  19.3421  19.7439
    20.0325  20.5299  21.7499  22.1305  22.2849  22.5554  22.6073  24.1275

          k = 0.1750 0.1750 0.0000 (  8817 PWs)   bands (ev):

   -30.9531 -15.9757 -15.9704 -11.6245 -11.3024 -11.2566  -8.1982  -7.5531
    -7.2482  -7.2406  -6.8039  -6.4638  -1.3760  -1.2033  -1.1321  -1.1126
    -0.7287  -0.6714   4.0689   4.2522   4.5522   4.6716   5.0492   5.2074
     5.8032   5.8153   5.9202   6.2785   6.7138   6.8786   6.9237   7.0595
     7.1911   7.1928   7.4067   7.7128   7.7959   7.9734   8.0371   8.2356
     8.2424   8.2496   8.2621   8.4004   8.5389   8.5499   8.9572   9.6642
     9.7771   9.7798  10.1679  13.0629  13.2873  14.2860  14.5393  14.6778
    14.9721  15.1280  15.9606  16.0427  16.3014  16.5658  16.5687  16.9325
    17.4860  17.8833  18.0379  18.5096  18.5204  18.9108  19.6055  19.7171
    20.0677  20.5259  21.4853  22.0963  22.2288  22.7108  23.0594  24.2300

          k = 0.2000 0.2000 0.0000 (  8835 PWs)   bands (ev):

   -30.9505 -15.9563 -15.9511 -11.5817 -11.3575 -11.3085  -8.0733  -7.5662
    -7.2903  -7.2055  -6.8251  -6.4872  -1.3699  -1.2072  -1.2009  -1.1793
    -0.7506  -0.6839   3.8788   4.1604   4.5367   4.6088   5.0949   5.2179
     5.6202   5.6893   5.7893   6.2484   6.6651   6.7896   6.9215   7.0048
     7.1542   7.2260   7.4047   7.6503   7.8690   8.0802   8.1045   8.2532
     8.2806   8.3523   8.3528   8.4725   8.5444   8.5702   8.9926   9.7383
     9.8972   9.9908  10.1974  13.0058  13.5107  14.3654  14.4045  15.0221
    15.0329  15.2279  16.0475  16.1486  16.3581  16.5669  16.5694  16.8683
    17.4498  17.8121  17.9436  18.5747  18.6604  18.9631  19.6883  19.8419
    20.1344  20.4972  21.2705  22.0342  22.1642  22.9114  23.5528  24.2497

          k = 0.2250 0.2250 0.0000 (  8829 PWs)   bands (ev):

   -30.9478 -15.9363 -15.9311 -11.5363 -11.4114 -11.3617  -7.9442  -7.5795
    -7.3339  -7.1704  -6.8403  -6.5045  -1.3649  -1.2716  -1.2486  -1.2105
    -0.7954  -0.7221   3.6768   4.0482   4.5109   4.5446   5.1218   5.2197
     5.4431   5.4907   5.7733   6.2394   6.6145   6.6791   6.9443   6.9563
     7.1403   7.2972   7.4208   7.6041   7.9532   8.1746   8.1780   8.2745
     8.2994   8.4554   8.4604   8.4983   8.5895   8.6094   9.0246   9.7182
    10.1107  10.1350  10.3216  12.9435  13.7419  14.2475  14.2620  15.3068
    15.3155  15.3984  16.1029  16.2490  16.3450  16.5867  16.6260  16.7788
    17.4160  17.7512  17.8663  18.6103  18.8387  19.0332  19.6488  20.0460
    20.2081  20.4491  21.1414  21.9582  22.1300  23.1270  24.0687  24.2092

          k = 0.2500 0.2500 0.0000 (  8819 PWs)   bands (ev):

   -30.9451 -15.9160 -15.9109 -11.4893 -11.4629 -11.4148  -7.8135  -7.5923
    -7.3778  -7.1361  -6.8481  -6.5146  -1.3622  -1.3423  -1.3187  -1.2136
    -0.8627  -0.7866   3.4682   3.9155   4.4765   4.4806   5.0607   5.2131
     5.2925   5.3965   5.7554   6.2476   6.5612   6.5717   6.9221   6.9662
     7.1513   7.4035   7.4543   7.5766   8.0452   8.2221   8.2534   8.3207
     8.3424   8.4980   8.5487   8.5588   8.6082   8.7118   9.0527   9.7180
    10.1445  10.3752  10.5335  12.8799  13.9538  14.1001  14.1053  15.3512
    15.6851  15.7997  16.1510  16.2721  16.3156  16.6609  16.6670  16.6715
    17.3934  17.7338  17.8066  18.6230  19.0467  19.1109  19.5929  20.1622
    20.2210  20.5024  21.1114  21.8733  22.1296  23.3482  24.1252  24.4696

          k = 0.2750 0.2750 0.0000 (  8838 PWs)   bands (ev):

   -30.9423 -15.8960 -15.8910 -11.5110 -11.4667 -11.4417  -7.6841  -7.6041
    -7.4210  -7.1035  -6.8480  -6.5171  -1.4114  -1.3878  -1.3632  -1.2167
    -0.9496  -0.8755   3.2586   3.7657   4.4184   4.4358   4.9013   5.1722
     5.2042   5.4131   5.7366   6.2628   6.4709   6.5107   6.9061   6.9846
     7.1821   7.5029   7.5391   7.5710   8.1424   8.2395   8.3176   8.3533
     8.4351   8.4988   8.6264   8.6316   8.6469   8.8251   9.0764   9.7377
    10.1632  10.6153  10.7595  12.8167  13.8811  13.9442  14.2316  15.3572
    16.0824  16.1370  16.2089  16.2370  16.3319  16.5463  16.6541  16.8052
    17.3931  17.7662  17.7723  18.6239  19.1819  19.2775  19.5182  20.0117
    20.3729  20.6751  21.1527  21.7834  22.1534  23.5707  24.0097  24.2482

          k = 0.3000 0.3000 0.0000 (  8844 PWs)   bands (ev):

   -30.9396 -15.8768 -15.8718 -11.5552 -11.5160 -11.3949  -7.6146  -7.5584
    -7.4626  -7.0732  -6.8401  -6.5121  -1.4772  -1.4544  -1.3693  -1.2209
    -1.0510  -0.9833   3.0533   3.6051   4.3594   4.3919   4.7262   5.0816
     5.1917   5.4615   5.7176   6.2663   6.3780   6.4782   6.9079   6.9998
     7.2210   7.5638   7.5933   7.6954   8.2425   8.2510   8.3435   8.4175
     8.5088   8.5232   8.6457   8.7038   8.7243   8.9442   9.0949   9.7767
    10.1796  10.8521  10.9837  12.7560  13.7177  13.7919  14.4483  15.3329
    16.0152  16.3038  16.3117  16.3561  16.4731  16.5811  16.6744  16.9980
    17.4333  17.7549  17.8450  18.6235  19.2170  19.4268  19.5261  19.8945
    20.5040  20.8791  21.2320  21.6924  22.1920  23.7926  23.8685  23.9953

          k = 0.3250 0.3250 0.0000 (  8850 PWs)   bands (ev):

   -30.9370 -15.8588 -15.8539 -11.5948 -11.5619 -11.3500  -7.6233  -7.5014
    -7.4387  -7.0458  -6.8255  -6.5004  -1.5385  -1.5168  -1.3832  -1.2305
    -1.1588  -1.0995   2.8576   3.4421   4.3047   4.3472   4.5647   5.0170
     5.1779   5.5115   5.6994   6.2412   6.2940   6.4782   6.9242   7.0128
     7.2537   7.6336   7.6487   7.8634   8.2598   8.3433   8.3535   8.4770
     8.5403   8.5940   8.6717   8.7651   8.7912   9.0651   9.1072   9.8335
    10.1954  11.0820  11.2007  12.7012  13.5632  13.6530  14.6402  15.2996
    15.8801  16.2149  16.2653  16.3766  16.4926  16.8071  17.0354  17.2129
    17.5501  17.8139  17.9182  18.6323  19.1848  19.3274  19.7886  19.8898
    20.6075  21.0572  21.3421  21.6039  22.2458  23.7025  23.7396  24.0077

          k = 0.3500 0.3500 0.0000 (  8846 PWs)   bands (ev):

   -30.9347 -15.8425 -15.8375 -11.6295 -11.6034 -11.3082  -7.6301  -7.5368
    -7.3272  -7.0216  -6.8060  -6.4833  -1.5939  -1.5737  -1.4122  -1.2772
    -1.2585  -1.1848   2.6764   3.2848   4.2552   4.3043   4.4247   4.9731
     5.1654   5.5539   5.6826   6.1955   6.2197   6.5016   6.9499   7.0240
     7.2739   7.7091   7.7339   8.0345   8.2656   8.3559   8.4431   8.5127
     8.6017   8.6349   8.7146   8.8158   8.8474   9.1125   9.1820   9.9045
    10.2105  11.3005  11.4062  12.6571  13.4268  13.5298  14.7660  15.2999
    15.7500  16.0598  16.1961  16.3218  16.5343  17.0297  17.2586  17.4223
    17.7745  17.9681  18.0387  18.6713  19.1139  19.2413  19.9925  20.0576
    20.6741  21.1455  21.4962  21.5207  22.3266  23.5041  23.5087  24.1158

          k = 0.3750 0.3750 0.0000 (  8850 PWs)   bands (ev):

   -30.9326 -15.8281 -15.8232 -11.6590 -11.6398 -11.2707  -7.6352  -7.5680
    -7.2259  -7.0008  -6.7844  -6.4627  -1.6424  -1.6238  -1.4721  -1.3871
    -1.3265  -1.2050   2.5141   3.1405   4.2120   4.2651   4.3083   4.9450
     5.1558   5.5862   5.6677   6.1449   6.1557   6.5329   6.9792   7.0336
     7.2838   7.7870   7.8367   8.1998   8.2668   8.3536   8.5389   8.5398
     8.6547   8.6723   8.7646   8.8568   8.8932   9.1098   9.2880   9.9847
    10.2244  11.5021  11.5961  12.6289  13.3144  13.4237  14.7826  15.3766
    15.6368  15.9065  16.1070  16.1992  16.6551  17.1628  17.3261  17.5945
    17.9827  18.0330  18.4324  18.7762  19.0545  19.2183  20.1548  20.2995
    20.7275  21.1354  21.4454  21.6602  22.4455  23.2807  23.3083  24.0159

          k = 0.4000 0.4000 0.0000 (  8860 PWs)   bands (ev):

   -30.9308 -15.8160 -15.8111 -11.6833 -11.6704 -11.2384  -7.6387  -7.5943
    -7.1367  -6.9837  -6.7637  -6.4408  -1.6832  -1.6662  -1.5563  -1.5020
    -1.3613  -1.2102   2.3750   3.0149   4.1757   4.2153   4.2310   4.9279
     5.1498   5.6082   5.6552   6.0981   6.1027   6.5642   7.0067   7.0416
     7.2876   7.8641   7.9431   8.2618   8.3492   8.3512   8.5617   8.6317
     8.6674   8.7396   8.8081   8.8887   8.9290   9.0984   9.3760  10.0668
    10.2363  11.6808  11.7650  12.6195  13.2309  13.3354  14.7143  15.5031
    15.5485  15.7627  16.0061  16.0741  16.7943  17.2640  17.3310  17.7125
    17.9590  18.1814  18.8938  18.9449  19.0520  19.3414  20.3429  20.4035
    20.8866  21.0518  21.3799  21.7780  22.5980  23.0113  23.1601  23.6437

          k = 0.4250 0.4250 0.0000 (  8846 PWs)   bands (ev):

   -30.9293 -15.8064 -15.8015 -11.7023 -11.6947 -11.2122  -7.6409  -7.6153
    -7.0617  -6.9704  -6.7467  -6.4201  -1.7156  -1.7001  -1.6381  -1.6023
    -1.3818  -1.2125   2.2627   2.9128   4.1448   4.1469   4.2034   4.9184
     5.1471   5.6216   5.6454   6.0591   6.0609   6.5922   7.0291   7.0480
     7.2886   7.9375   8.0411   8.2493   8.3444   8.4807   8.5807   8.6768
     8.7170   8.7981   8.8415   8.9129   8.9549   9.0779   9.4412  10.1427
    10.2458  11.8300  11.9072  12.6263  13.1804  13.2656  14.6090  15.4898
    15.6297  15.6369  15.9066  15.9570  16.9436  17.3188  17.3618  17.7908
    17.8996  18.1726  18.9705  19.2961  19.3665  19.6203  20.3652  20.5309
    20.9284  21.1762  21.3254  21.7965  22.7005  22.7636  23.0483  23.2380

          k = 0.4500 0.4500 0.0000 (  8854 PWs)   bands (ev):

   -30.9283 -15.7994 -15.7945 -11.7158 -11.7124 -11.1930  -7.6422  -7.6306
    -7.0036  -6.9608  -6.7352  -6.4031  -1.7392  -1.7247  -1.7029  -1.6795
    -1.3955  -1.2138   2.1802   2.8375   4.0957   4.1259   4.1831   4.9135
     5.1466   5.6287   5.6383   6.0302   6.0309   6.6144   7.0447   7.0527
     7.2883   8.0037   8.1202   8.2291   8.3403   8.5807   8.5950   8.6838
     8.7928   8.8436   8.8646   8.9307   8.9717   9.0484   9.4831  10.2042
    10.2526  11.9428  12.0158  12.6403  13.1630  13.2149  14.4985  15.4599
    15.5378  15.7302  15.8236  15.8566  17.0941  17.3046  17.4642  17.8126
    17.8498  18.0787  18.9616  19.6280  19.8134  19.9540  20.2930  20.6681
    20.8356  21.2828  21.5026  21.6631  22.3676  22.9152  22.9236  23.0107

          k = 0.4750 0.4750 0.0000 (  8860 PWs)   bands (ev):

   -30.9277 -15.7952 -15.7903 -11.7240 -11.7230 -11.1813  -7.6428  -7.6399
    -6.9662  -6.9550  -6.7293  -6.3919  -1.7534  -1.7441  -1.7397  -1.7281
    -1.4038  -1.2144   2.1297   2.7915   4.0668   4.1133   4.1707   4.9114
     5.1470   5.6317   5.6340   6.0123   6.0128   6.6288   7.0536   7.0555
     7.2878   8.0570   8.1720   8.2045   8.3376   8.6039   8.6444   8.6883
     8.8531   8.8724   8.8779   8.9456   8.9805   9.0119   9.5050  10.2442
    10.2567  12.0134  12.0844  12.6515  13.1679  13.1840  14.4119  15.4518
    15.4741  15.7674  15.7849  15.7953  17.2273  17.2944  17.5638  17.7170
    17.8922  17.9675  18.9554  19.9346  20.1756  20.2326  20.2361  20.6545
    20.9002  21.2530  21.4101  21.7986  22.0709  22.8213  22.9181  22.9387

          k = 0.5000 0.5000 0.0000 (  8856 PWs)   bands (ev):

   -30.9274 -15.7938 -15.7888 -11.7268 -11.7265 -11.1773  -7.6431  -7.6429
    -6.9534  -6.9529  -6.7276  -6.3880  -1.7583  -1.7582  -1.7447  -1.7446
    -1.4066  -1.2146   2.1128   2.7760   4.0572   4.1090   4.1665   4.9108
     5.1473   5.6325   5.6326   6.0062   6.0068   6.6338   7.0564   7.0564
     7.2876   8.0811   8.1900   8.1901   8.3366   8.6069   8.6665   8.6899
     8.8793   8.8821   8.8825   8.9613   8.9831   8.9831   9.5116  10.2580
    10.2580  12.0375  12.1080  12.6555  13.1736  13.1737  14.3784  15.4519
    15.4521  15.7492  15.7579  15.8160  17.2907  17.2908  17.6169  17.6660
    17.9081  17.9086  18.9532  20.0733  20.2151  20.3300  20.3461  20.6381
    20.9715  21.2406  21.2418  21.9372  21.9381  22.7956  22.7958  22.9148

     Writing all to output data dir ./YBCO6/YBCO6.save/
 
     init_run     :      0.55s CPU      0.68s WALL (       1 calls)
     electrons    :    264.03s CPU    267.42s WALL (       1 calls)

     Called by init_run:
     wfcinit      :      0.00s CPU      0.00s WALL (       1 calls)
     wfcinit:atom :      0.07s CPU      0.09s WALL (     101 calls)
     wfcinit:wfcr :      4.52s CPU      4.67s WALL (     101 calls)
     potinit      :      0.00s CPU      0.01s WALL (       1 calls)
     hinit0       :      0.25s CPU      0.26s WALL (       1 calls)

     Called by electrons:
     c_bands      :    264.03s CPU    267.42s WALL (       1 calls)
     v_of_rho     :      0.00s CPU      0.00s WALL (       1 calls)
     v_h          :      0.00s CPU      0.00s WALL (       1 calls)
     v_xc         :      0.00s CPU      0.00s WALL (       1 calls)
     newd         :      0.26s CPU      0.36s WALL (       1 calls)

     Called by c_bands:
     init_us_2    :      0.11s CPU      0.13s WALL (     101 calls)
     init_us_2:cp :      0.11s CPU      0.13s WALL (     101 calls)
     cegterg      :    258.17s CPU    260.88s WALL (     396 calls)

     Called by sum_band:

     Called by *egterg:
     cdiaghg      :     31.08s CPU     31.28s WALL (    7128 calls)
     cegterg:over :     28.63s CPU     28.92s WALL (    7027 calls)
     cegterg:upda :     15.64s CPU     15.68s WALL (    7027 calls)
     cegterg:last :     40.56s CPU     40.59s WALL (    3291 calls)
     h_psi        :    123.53s CPU    125.66s WALL (    7524 calls)
     s_psi        :     15.44s CPU     15.50s WALL (    7524 calls)
     g_psi        :      1.00s CPU      1.00s WALL (    7027 calls)

     Called by h_psi:
     h_psi:calbec :     16.65s CPU     16.89s WALL (    7524 calls)
     vloc_psi     :     88.97s CPU     90.69s WALL (    7524 calls)
     add_vuspsi   :     16.49s CPU     16.65s WALL (    7524 calls)

     General routines
     calbec       :     16.63s CPU     16.88s WALL (    7524 calls)
     fft          :      0.00s CPU      0.01s WALL (       6 calls)
     ffts         :      0.00s CPU      0.00s WALL (       1 calls)
     fftw         :     66.66s CPU     67.93s WALL (  548060 calls)
     interpolate  :      0.00s CPU      0.00s WALL (       1 calls)
     davcio       :      0.14s CPU      0.66s WALL (     202 calls)
 
     Parallel routines
 
     PWSCF        :   4m24.96s CPU   4m29.20s WALL

 
   This run was terminated on:  21:31:47  31Dec2023            

=------------------------------------------------------------------------------=
   JOB DONE.
=------------------------------------------------------------------------------=
