
     Program PWSCF v.7.2 starts on 31Dec2023 at 21:17:31 

     This program is part of the open-source Quantum ESPRESSO suite
     for quantum simulation of materials; please cite
         "P. Giannozzi et al., J. Phys.:Condens. Matter 21 395502 (2009);
         "P. Giannozzi et al., J. Phys.:Condens. Matter 29 465901 (2017);
         "P. Giannozzi et al., J. Chem. Phys. 152 154105 (2020);
          URL http://www.quantum-espresso.org", 
     in publications or presentations arising from this work. More details at
     http://www.quantum-espresso.org/quote

     Parallel version (MPI), running on     4 processors

     MPI processes distributed on     1 nodes
     5023 MiB available memory on the printing compute node when the environment starts
 
     Waiting for input...
     Reading input from standard input

     Current dimensions of program PWSCF are:
     Max number of different atomic species (ntypx) = 10
     Max number of k-points (npk) =  40000
     Max angular momentum in pseudopotentials (lmaxx) =  4
     file Y.pz-spn-rrkjus_psl.1.0.0.UPF: wavefunction(s)  4S renormalized
     file Ba.pz-spn-rrkjus_psl.1.0.0.UPF: wavefunction(s)  5S 6S renormalized
     file Cu.pz-dn-rrkjus_psl.1.0.0.UPF: wavefunction(s)  3D renormalized

     Atomic positions and unit cell read from directory:
     ./YBCO6/YBCO6.save/
 
 
     R & G space division:  proc/nbgrp/npool/nimage =       4
     Subspace diagonalization in iterative solution of the eigenvalue problem:
     a serial algorithm will be used

 
     Parallelization info
     --------------------
     sticks:   dense  smooth     PW     G-vecs:    dense   smooth      PW
     Min         554     243     70                59678    17683    2731
     Max         555     244     72                59689    17698    2736
     Sum        2217     973    285               238729    70751   10933
 
     Using Slab Decomposition
 


     bravais-lattice index     =            6
     lattice parameter (alat)  =       7.1730  a.u.
     unit-cell volume          =    1125.5476 (a.u.)^3
     number of atoms/cell      =           12
     number of atomic types    =            4
     number of electrons       =       100.00
     number of Kohn-Sham states=           60
     kinetic-energy cutoff     =      60.0000  Ry
     charge density cutoff     =     540.0000  Ry
     Exchange-correlation= LDA
                           (   1   1   0   0   0   0   0)

     celldm(1)=   7.172959  celldm(2)=   0.000000  celldm(3)=   3.049782
     celldm(4)=   0.000000  celldm(5)=   0.000000  celldm(6)=   0.000000

     crystal axes: (cart. coord. in units of alat)
               a(1) = (   1.000000   0.000000   0.000000 )  
               a(2) = (   0.000000   1.000000   0.000000 )  
               a(3) = (   0.000000   0.000000   3.049782 )  

     reciprocal axes: (cart. coord. in units 2 pi/alat)
               b(1) = (  1.000000  0.000000  0.000000 )  
               b(2) = (  0.000000  1.000000  0.000000 )  
               b(3) = (  0.000000  0.000000  0.327892 )  


     PseudoPot. # 1 for Y  read from file:
     ~/q-e/pslibrary/pz/PSEUDOPOTENTIALS/Y.pz-spn-rrkjus_psl.1.0.0.UPF
     MD5 check sum: Not computed, couldn't open file
     Pseudo is Ultrasoft + core correction, Zval = 11.0
     Generated using 'atomic' code by A. Dal Corso  v.7.2
     Using radial grid of 1223 points,  6 beta functions with: 
                l(1) =   0
                l(2) =   0
                l(3) =   1
                l(4) =   1
                l(5) =   2
                l(6) =   2
     Q(r) pseudized with 0 coefficients 


     PseudoPot. # 2 for Ba read from file:
     ~/q-e/pslibrary/pz/PSEUDOPOTENTIALS/Ba.pz-spn-rrkjus_psl.1.0.0.UPF
     MD5 check sum: Not computed, couldn't open file
     Pseudo is Ultrasoft + core correction, Zval = 10.0
     Generated using 'atomic' code by A. Dal Corso  v.7.2
     Using radial grid of 1251 points,  7 beta functions with: 
                l(1) =   0
                l(2) =   0
                l(3) =   0
                l(4) =   1
                l(5) =   1
                l(6) =   2
                l(7) =   2
     Q(r) pseudized with 0 coefficients 


     PseudoPot. # 3 for Cu read from file:
     ~/q-e/pslibrary/pz/PSEUDOPOTENTIALS/Cu.pz-dn-rrkjus_psl.1.0.0.UPF
     MD5 check sum: Not computed, couldn't open file
     Pseudo is Ultrasoft + core correction, Zval = 11.0
     Generated using 'atomic' code by A. Dal Corso  v.7.2
     Using radial grid of 1199 points,  6 beta functions with: 
                l(1) =   0
                l(2) =   0
                l(3) =   1
                l(4) =   1
                l(5) =   2
                l(6) =   2
     Q(r) pseudized with 0 coefficients 


     PseudoPot. # 4 for O  read from file:
     ~/q-e/pslibrary/pz/PSEUDOPOTENTIALS/O.pz-n-rrkjus_psl.1.0.0.UPF
     MD5 check sum: Not computed, couldn't open file
     Pseudo is Ultrasoft + core correction, Zval =  6.0
     Generated using 'atomic' code by A. Dal Corso  v.7.2
     Using radial grid of 1095 points,  4 beta functions with: 
                l(1) =   0
                l(2) =   0
                l(3) =   1
                l(4) =   1
     Q(r) pseudized with 0 coefficients 


     atomic species   valence    mass     pseudopotential
     Y                11.00    88.90584     Y ( 1.00)
     Ba               10.00   137.32700     Ba( 1.00)
     Cu               11.00    63.54600     Cu( 1.00)
     O                 6.00    15.99900     O ( 1.00)

      8 Sym. Ops., with inversion, found


                                    s                        frac. trans.

      isym =  1     identity                                     

 cryst.   s( 1) = (     1          0          0      )
                  (     0          1          0      )
                  (     0          0          1      )

 cart.    s( 1) = (  1.0000000  0.0000000  0.0000000 )
                  (  0.0000000  1.0000000  0.0000000 )
                  (  0.0000000  0.0000000  1.0000000 )


      isym =  2     180 deg rotation - cart. axis [0,0,1]        

 cryst.   s( 2) = (    -1          0          0      )
                  (     0         -1          0      )
                  (     0          0          1      )

 cart.    s( 2) = ( -1.0000000  0.0000000  0.0000000 )
                  (  0.0000000 -1.0000000  0.0000000 )
                  (  0.0000000  0.0000000  1.0000000 )


      isym =  3     180 deg rotation - cart. axis [0,1,0]        

 cryst.   s( 3) = (    -1          0          0      )
                  (     0          1          0      )
                  (     0          0         -1      )

 cart.    s( 3) = ( -1.0000000  0.0000000  0.0000000 )
                  (  0.0000000  1.0000000  0.0000000 )
                  (  0.0000000  0.0000000 -1.0000000 )


      isym =  4     180 deg rotation - cart. axis [1,0,0]        

 cryst.   s( 4) = (     1          0          0      )
                  (     0         -1          0      )
                  (     0          0         -1      )

 cart.    s( 4) = (  1.0000000  0.0000000  0.0000000 )
                  (  0.0000000 -1.0000000  0.0000000 )
                  (  0.0000000  0.0000000 -1.0000000 )


      isym =  5     inversion                                    

 cryst.   s( 5) = (    -1          0          0      )
                  (     0         -1          0      )
                  (     0          0         -1      )

 cart.    s( 5) = ( -1.0000000  0.0000000  0.0000000 )
                  (  0.0000000 -1.0000000  0.0000000 )
                  (  0.0000000  0.0000000 -1.0000000 )


      isym =  6     inv. 180 deg rotation - cart. axis [0,0,1]   

 cryst.   s( 6) = (     1          0          0      )
                  (     0          1          0      )
                  (     0          0         -1      )

 cart.    s( 6) = (  1.0000000  0.0000000  0.0000000 )
                  (  0.0000000  1.0000000  0.0000000 )
                  (  0.0000000  0.0000000 -1.0000000 )


      isym =  7     inv. 180 deg rotation - cart. axis [0,1,0]   

 cryst.   s( 7) = (     1          0          0      )
                  (     0         -1          0      )
                  (     0          0          1      )

 cart.    s( 7) = (  1.0000000  0.0000000  0.0000000 )
                  (  0.0000000 -1.0000000  0.0000000 )
                  (  0.0000000  0.0000000  1.0000000 )


      isym =  8     inv. 180 deg rotation - cart. axis [1,0,0]   

 cryst.   s( 8) = (    -1          0          0      )
                  (     0          1          0      )
                  (     0          0          1      )

 cart.    s( 8) = ( -1.0000000  0.0000000  0.0000000 )
                  (  0.0000000  1.0000000  0.0000000 )
                  (  0.0000000  0.0000000  1.0000000 )


     point group D_2h (mmm) 
     there are  8 classes
     the character table:

       E     C2    C2'   C2''  i     s_v   s_v'  s_v''
A_g    1.00  1.00  1.00  1.00  1.00  1.00  1.00  1.00
B_1g   1.00  1.00 -1.00 -1.00  1.00  1.00 -1.00 -1.00
B_2g   1.00 -1.00  1.00 -1.00  1.00 -1.00  1.00 -1.00
B_3g   1.00 -1.00 -1.00  1.00  1.00 -1.00 -1.00  1.00
A_u    1.00  1.00  1.00  1.00 -1.00 -1.00 -1.00 -1.00
B_1u   1.00  1.00 -1.00 -1.00 -1.00 -1.00  1.00  1.00
B_2u   1.00 -1.00  1.00 -1.00 -1.00  1.00 -1.00  1.00
B_3u   1.00 -1.00 -1.00  1.00 -1.00  1.00  1.00 -1.00

     the symmetry operations in each class and the name of the first element:

     E        1
          identity                                               
     C2       2
          180 deg rotation - cart. axis [0,0,1]                  
     C2'      4
          180 deg rotation - cart. axis [1,0,0]                  
     C2''     3
          180 deg rotation - cart. axis [0,1,0]                  
     i        5
          inversion                                              
     s_v      6
          inv. 180 deg rotation - cart. axis [0,0,1]             
     s_v'     8
          inv. 180 deg rotation - cart. axis [1,0,0]             
     s_v''    7
          inv. 180 deg rotation - cart. axis [0,1,0]             

   Cartesian axes

     site n.     atom                  positions (alat units)
         1        Y      tau(   1) = (   0.5000000   0.5000000   1.5248910  )
         2        Ba     tau(   2) = (   0.5000000   0.5000000   0.5933142  )
         3        Ba     tau(   3) = (   0.5000000   0.5000000   2.4564678  )
         4        Cu     tau(   4) = (   0.0000000   0.0000000   0.0000000  )
         5        Cu     tau(   5) = (   0.0000000   0.0000000   1.1052738  )
         6        Cu     tau(   6) = (   0.0000000   0.0000000   1.9445082  )
         7        O      tau(   7) = (   0.5000000   0.0000000   1.1538851  )
         8        O      tau(   8) = (   0.5000000   0.0000000   1.8958969  )
         9        O      tau(   9) = (   0.0000000   0.5000000   1.1539576  )
        10        O      tau(  10) = (   0.0000000   0.5000000   1.8958244  )
        11        O      tau(  11) = (   0.0000000   0.0000000   0.4628128  )
        12        O      tau(  12) = (   0.0000000   0.0000000   2.5869691  )

   Crystallographic axes

     site n.     atom                  positions (cryst. coord.)
         1        Y      tau(   1) = (  0.5000000  0.5000000  0.5000000  )
         2        Ba     tau(   2) = (  0.5000000  0.5000000  0.1945431  )
         3        Ba     tau(   3) = (  0.5000000  0.5000000  0.8054569  )
         4        Cu     tau(   4) = (  0.0000000  0.0000000  0.0000000  )
         5        Cu     tau(   5) = (  0.0000000  0.0000000  0.3624108  )
         6        Cu     tau(   6) = (  0.0000000  0.0000000  0.6375892  )
         7        O      tau(   7) = (  0.5000000  0.0000000  0.3783500  )
         8        O      tau(   8) = (  0.5000000  0.0000000  0.6216500  )
         9        O      tau(   9) = (  0.0000000  0.5000000  0.3783738  )
        10        O      tau(  10) = (  0.0000000  0.5000000  0.6216262  )
        11        O      tau(  11) = (  0.0000000  0.0000000  0.1517528  )
        12        O      tau(  12) = (  0.0000000  0.0000000  0.8482472  )

     number of k points=    64 (tetrahedron method)
                       cart. coord. in units 2pi/alat
        k(    1) = (   0.0625000   0.0625000   0.0204933), wk =   0.0312500
        k(    2) = (   0.0625000   0.0625000   0.0614798), wk =   0.0312500
        k(    3) = (   0.0625000   0.0625000   0.1024663), wk =   0.0312500
        k(    4) = (   0.0625000   0.0625000   0.1434529), wk =   0.0312500
        k(    5) = (   0.0625000   0.1875000   0.0204933), wk =   0.0312500
        k(    6) = (   0.0625000   0.1875000   0.0614798), wk =   0.0312500
        k(    7) = (   0.0625000   0.1875000   0.1024663), wk =   0.0312500
        k(    8) = (   0.0625000   0.1875000   0.1434529), wk =   0.0312500
        k(    9) = (   0.0625000   0.3125000   0.0204933), wk =   0.0312500
        k(   10) = (   0.0625000   0.3125000   0.0614798), wk =   0.0312500
        k(   11) = (   0.0625000   0.3125000   0.1024663), wk =   0.0312500
        k(   12) = (   0.0625000   0.3125000   0.1434529), wk =   0.0312500
        k(   13) = (   0.0625000   0.4375000   0.0204933), wk =   0.0312500
        k(   14) = (   0.0625000   0.4375000   0.0614798), wk =   0.0312500
        k(   15) = (   0.0625000   0.4375000   0.1024663), wk =   0.0312500
        k(   16) = (   0.0625000   0.4375000   0.1434529), wk =   0.0312500
        k(   17) = (   0.1875000   0.1875000   0.0204933), wk =   0.0312500
        k(   18) = (   0.1875000   0.1875000   0.0614798), wk =   0.0312500
        k(   19) = (   0.1875000   0.1875000   0.1024663), wk =   0.0312500
        k(   20) = (   0.1875000   0.1875000   0.1434529), wk =   0.0312500
        k(   21) = (   0.1875000   0.3125000   0.0204933), wk =   0.0312500
        k(   22) = (   0.1875000   0.3125000   0.0614798), wk =   0.0312500
        k(   23) = (   0.1875000   0.3125000   0.1024663), wk =   0.0312500
        k(   24) = (   0.1875000   0.3125000   0.1434529), wk =   0.0312500
        k(   25) = (   0.1875000   0.4375000   0.0204933), wk =   0.0312500
        k(   26) = (   0.1875000   0.4375000   0.0614798), wk =   0.0312500
        k(   27) = (   0.1875000   0.4375000   0.1024663), wk =   0.0312500
        k(   28) = (   0.1875000   0.4375000   0.1434529), wk =   0.0312500
        k(   29) = (   0.3125000   0.3125000   0.0204933), wk =   0.0312500
        k(   30) = (   0.3125000   0.3125000   0.0614798), wk =   0.0312500
        k(   31) = (   0.3125000   0.3125000   0.1024663), wk =   0.0312500
        k(   32) = (   0.3125000   0.3125000   0.1434529), wk =   0.0312500
        k(   33) = (   0.3125000   0.4375000   0.0204933), wk =   0.0312500
        k(   34) = (   0.3125000   0.4375000   0.0614798), wk =   0.0312500
        k(   35) = (   0.3125000   0.4375000   0.1024663), wk =   0.0312500
        k(   36) = (   0.3125000   0.4375000   0.1434529), wk =   0.0312500
        k(   37) = (   0.4375000   0.4375000   0.0204933), wk =   0.0312500
        k(   38) = (   0.4375000   0.4375000   0.0614798), wk =   0.0312500
        k(   39) = (   0.4375000   0.4375000   0.1024663), wk =   0.0312500
        k(   40) = (   0.4375000   0.4375000   0.1434529), wk =   0.0312500
        k(   41) = (   0.1875000   0.0625000  -0.0204933), wk =   0.0312500
        k(   42) = (   0.1875000   0.0625000  -0.0614798), wk =   0.0312500
        k(   43) = (   0.1875000   0.0625000  -0.1024663), wk =   0.0312500
        k(   44) = (   0.1875000   0.0625000  -0.1434529), wk =   0.0312500
        k(   45) = (   0.3125000   0.0625000  -0.0204933), wk =   0.0312500
        k(   46) = (   0.3125000   0.0625000  -0.0614798), wk =   0.0312500
        k(   47) = (   0.3125000   0.0625000  -0.1024663), wk =   0.0312500
        k(   48) = (   0.3125000   0.0625000  -0.1434529), wk =   0.0312500
        k(   49) = (   0.4375000   0.0625000  -0.0204933), wk =   0.0312500
        k(   50) = (   0.4375000   0.0625000  -0.0614798), wk =   0.0312500
        k(   51) = (   0.4375000   0.0625000  -0.1024663), wk =   0.0312500
        k(   52) = (   0.4375000   0.0625000  -0.1434529), wk =   0.0312500
        k(   53) = (   0.3125000   0.1875000  -0.0204933), wk =   0.0312500
        k(   54) = (   0.3125000   0.1875000  -0.0614798), wk =   0.0312500
        k(   55) = (   0.3125000   0.1875000  -0.1024663), wk =   0.0312500
        k(   56) = (   0.3125000   0.1875000  -0.1434529), wk =   0.0312500
        k(   57) = (   0.4375000   0.1875000  -0.0204933), wk =   0.0312500
        k(   58) = (   0.4375000   0.1875000  -0.0614798), wk =   0.0312500
        k(   59) = (   0.4375000   0.1875000  -0.1024663), wk =   0.0312500
        k(   60) = (   0.4375000   0.1875000  -0.1434529), wk =   0.0312500
        k(   61) = (   0.4375000   0.3125000  -0.0204933), wk =   0.0312500
        k(   62) = (   0.4375000   0.3125000  -0.0614798), wk =   0.0312500
        k(   63) = (   0.4375000   0.3125000  -0.1024663), wk =   0.0312500
        k(   64) = (   0.4375000   0.3125000  -0.1434529), wk =   0.0312500

                       cryst. coord.
        k(    1) = (   0.0625000   0.0625000   0.0625000), wk =   0.0312500
        k(    2) = (   0.0625000   0.0625000   0.1875000), wk =   0.0312500
        k(    3) = (   0.0625000   0.0625000   0.3125000), wk =   0.0312500
        k(    4) = (   0.0625000   0.0625000   0.4375000), wk =   0.0312500
        k(    5) = (   0.0625000   0.1875000   0.0625000), wk =   0.0312500
        k(    6) = (   0.0625000   0.1875000   0.1875000), wk =   0.0312500
        k(    7) = (   0.0625000   0.1875000   0.3125000), wk =   0.0312500
        k(    8) = (   0.0625000   0.1875000   0.4375000), wk =   0.0312500
        k(    9) = (   0.0625000   0.3125000   0.0625000), wk =   0.0312500
        k(   10) = (   0.0625000   0.3125000   0.1875000), wk =   0.0312500
        k(   11) = (   0.0625000   0.3125000   0.3125000), wk =   0.0312500
        k(   12) = (   0.0625000   0.3125000   0.4375000), wk =   0.0312500
        k(   13) = (   0.0625000   0.4375000   0.0625000), wk =   0.0312500
        k(   14) = (   0.0625000   0.4375000   0.1875000), wk =   0.0312500
        k(   15) = (   0.0625000   0.4375000   0.3125000), wk =   0.0312500
        k(   16) = (   0.0625000   0.4375000   0.4375000), wk =   0.0312500
        k(   17) = (   0.1875000   0.1875000   0.0625000), wk =   0.0312500
        k(   18) = (   0.1875000   0.1875000   0.1875000), wk =   0.0312500
        k(   19) = (   0.1875000   0.1875000   0.3125000), wk =   0.0312500
        k(   20) = (   0.1875000   0.1875000   0.4375000), wk =   0.0312500
        k(   21) = (   0.1875000   0.3125000   0.0625000), wk =   0.0312500
        k(   22) = (   0.1875000   0.3125000   0.1875000), wk =   0.0312500
        k(   23) = (   0.1875000   0.3125000   0.3125000), wk =   0.0312500
        k(   24) = (   0.1875000   0.3125000   0.4375000), wk =   0.0312500
        k(   25) = (   0.1875000   0.4375000   0.0625000), wk =   0.0312500
        k(   26) = (   0.1875000   0.4375000   0.1875000), wk =   0.0312500
        k(   27) = (   0.1875000   0.4375000   0.3125000), wk =   0.0312500
        k(   28) = (   0.1875000   0.4375000   0.4375000), wk =   0.0312500
        k(   29) = (   0.3125000   0.3125000   0.0625000), wk =   0.0312500
        k(   30) = (   0.3125000   0.3125000   0.1875000), wk =   0.0312500
        k(   31) = (   0.3125000   0.3125000   0.3125000), wk =   0.0312500
        k(   32) = (   0.3125000   0.3125000   0.4375000), wk =   0.0312500
        k(   33) = (   0.3125000   0.4375000   0.0625000), wk =   0.0312500
        k(   34) = (   0.3125000   0.4375000   0.1875000), wk =   0.0312500
        k(   35) = (   0.3125000   0.4375000   0.3125000), wk =   0.0312500
        k(   36) = (   0.3125000   0.4375000   0.4375000), wk =   0.0312500
        k(   37) = (   0.4375000   0.4375000   0.0625000), wk =   0.0312500
        k(   38) = (   0.4375000   0.4375000   0.1875000), wk =   0.0312500
        k(   39) = (   0.4375000   0.4375000   0.3125000), wk =   0.0312500
        k(   40) = (   0.4375000   0.4375000   0.4375000), wk =   0.0312500
        k(   41) = (   0.1875000   0.0625000  -0.0625000), wk =   0.0312500
        k(   42) = (   0.1875000   0.0625000  -0.1875000), wk =   0.0312500
        k(   43) = (   0.1875000   0.0625000  -0.3125000), wk =   0.0312500
        k(   44) = (   0.1875000   0.0625000  -0.4375000), wk =   0.0312500
        k(   45) = (   0.3125000   0.0625000  -0.0625000), wk =   0.0312500
        k(   46) = (   0.3125000   0.0625000  -0.1875000), wk =   0.0312500
        k(   47) = (   0.3125000   0.0625000  -0.3125000), wk =   0.0312500
        k(   48) = (   0.3125000   0.0625000  -0.4375000), wk =   0.0312500
        k(   49) = (   0.4375000   0.0625000  -0.0625000), wk =   0.0312500
        k(   50) = (   0.4375000   0.0625000  -0.1875000), wk =   0.0312500
        k(   51) = (   0.4375000   0.0625000  -0.3125000), wk =   0.0312500
        k(   52) = (   0.4375000   0.0625000  -0.4375000), wk =   0.0312500
        k(   53) = (   0.3125000   0.1875000  -0.0625000), wk =   0.0312500
        k(   54) = (   0.3125000   0.1875000  -0.1875000), wk =   0.0312500
        k(   55) = (   0.3125000   0.1875000  -0.3125000), wk =   0.0312500
        k(   56) = (   0.3125000   0.1875000  -0.4375000), wk =   0.0312500
        k(   57) = (   0.4375000   0.1875000  -0.0625000), wk =   0.0312500
        k(   58) = (   0.4375000   0.1875000  -0.1875000), wk =   0.0312500
        k(   59) = (   0.4375000   0.1875000  -0.3125000), wk =   0.0312500
        k(   60) = (   0.4375000   0.1875000  -0.4375000), wk =   0.0312500
        k(   61) = (   0.4375000   0.3125000  -0.0625000), wk =   0.0312500
        k(   62) = (   0.4375000   0.3125000  -0.1875000), wk =   0.0312500
        k(   63) = (   0.4375000   0.3125000  -0.3125000), wk =   0.0312500
        k(   64) = (   0.4375000   0.3125000  -0.4375000), wk =   0.0312500

     Dense  grid:   238729 G-vectors     FFT dimensions: (  54,  54, 162)

     Smooth grid:    70751 G-vectors     FFT dimensions: (  36,  36, 108)

     Dynamical RAM for                 wfc:       2.02 MB

     Dynamical RAM for     wfc (w. buffer):       2.02 MB

     Dynamical RAM for           str. fact:       3.64 MB

     Dynamical RAM for           local pot:       0.00 MB

     Dynamical RAM for          nlocal pot:       5.32 MB

     Dynamical RAM for                qrad:       9.94 MB

     Dynamical RAM for          rho,v,vnew:       5.47 MB

     Dynamical RAM for           G-vectors:       3.55 MB

     Dynamical RAM for          h,s,v(r/c):       0.66 MB

     Dynamical RAM for          <psi|beta>:       0.14 MB

     Dynamical RAM for                 psi:       4.04 MB

     Dynamical RAM for                hpsi:       4.04 MB

     Dynamical RAM for                spsi:       4.04 MB

     Dynamical RAM for      wfcinit/wfcrot:       5.11 MB

     Dynamical RAM for           addusdens:     192.17 MB

     Estimated static dynamical RAM per process >      39.06 MB

     Estimated max dynamical RAM per process >     231.24 MB

     Estimated total dynamical RAM >     924.95 MB

     The potential is recalculated from file :
     ./YBCO6/YBCO6.save/charge-density

     Starting wfcs are   74 randomized atomic wfcs

     Band Structure Calculation
     Davidson diagonalization with overlap

     Computing kpt #:     1  of    64
     total cpu time spent up to now is        2.9 secs

     Computing kpt #:     2  of    64
     total cpu time spent up to now is        5.0 secs

     Computing kpt #:     3  of    64
     total cpu time spent up to now is        7.2 secs

     Computing kpt #:     4  of    64
     c_bands:  2 eigenvalues not converged
     total cpu time spent up to now is        9.4 secs

     Computing kpt #:     5  of    64
     c_bands:  1 eigenvalues not converged
     total cpu time spent up to now is       11.6 secs

     Computing kpt #:     6  of    64
     total cpu time spent up to now is       13.8 secs

     Computing kpt #:     7  of    64
     total cpu time spent up to now is       16.0 secs

     Computing kpt #:     8  of    64
     c_bands:  1 eigenvalues not converged
     total cpu time spent up to now is       18.2 secs

     Computing kpt #:     9  of    64
     c_bands:  1 eigenvalues not converged
     total cpu time spent up to now is       20.5 secs

     Computing kpt #:    10  of    64
     c_bands:  1 eigenvalues not converged
     total cpu time spent up to now is       23.1 secs

     Computing kpt #:    11  of    64
     c_bands:  1 eigenvalues not converged
     total cpu time spent up to now is       25.7 secs

     Computing kpt #:    12  of    64
     c_bands:  1 eigenvalues not converged
     total cpu time spent up to now is       28.4 secs

     Computing kpt #:    13  of    64
     total cpu time spent up to now is       30.9 secs

     Computing kpt #:    14  of    64
     total cpu time spent up to now is       33.6 secs

     Computing kpt #:    15  of    64
     total cpu time spent up to now is       36.1 secs

     Computing kpt #:    16  of    64
     total cpu time spent up to now is       38.4 secs

     Computing kpt #:    17  of    64
     c_bands:  1 eigenvalues not converged
     total cpu time spent up to now is       41.1 secs

     Computing kpt #:    18  of    64
     total cpu time spent up to now is       43.6 secs

     Computing kpt #:    19  of    64
     c_bands:  1 eigenvalues not converged
     total cpu time spent up to now is       46.3 secs

     Computing kpt #:    20  of    64
     c_bands:  1 eigenvalues not converged
     total cpu time spent up to now is       48.9 secs

     Computing kpt #:    21  of    64
     c_bands:  1 eigenvalues not converged
     total cpu time spent up to now is       51.5 secs

     Computing kpt #:    22  of    64
     total cpu time spent up to now is       54.1 secs

     Computing kpt #:    23  of    64
     c_bands:  1 eigenvalues not converged
     total cpu time spent up to now is       56.8 secs

     Computing kpt #:    24  of    64
     c_bands:  2 eigenvalues not converged
     total cpu time spent up to now is       59.6 secs

     Computing kpt #:    25  of    64
     c_bands:  1 eigenvalues not converged
     total cpu time spent up to now is       62.2 secs

     Computing kpt #:    26  of    64
     c_bands:  1 eigenvalues not converged
     total cpu time spent up to now is       64.9 secs

     Computing kpt #:    27  of    64
     c_bands:  1 eigenvalues not converged
     total cpu time spent up to now is       67.5 secs

     Computing kpt #:    28  of    64
     c_bands:  1 eigenvalues not converged
     total cpu time spent up to now is       70.2 secs

     Computing kpt #:    29  of    64
     c_bands:  1 eigenvalues not converged
     total cpu time spent up to now is       72.9 secs

     Computing kpt #:    30  of    64
     c_bands:  1 eigenvalues not converged
     total cpu time spent up to now is       75.6 secs

     Computing kpt #:    31  of    64
     c_bands:  1 eigenvalues not converged
     total cpu time spent up to now is       78.2 secs

     Computing kpt #:    32  of    64
     c_bands:  1 eigenvalues not converged
     total cpu time spent up to now is       80.8 secs

     Computing kpt #:    33  of    64
     total cpu time spent up to now is       83.4 secs

     Computing kpt #:    34  of    64
     total cpu time spent up to now is       86.0 secs

     Computing kpt #:    35  of    64
     c_bands:  1 eigenvalues not converged
     total cpu time spent up to now is       88.7 secs

     Computing kpt #:    36  of    64
     total cpu time spent up to now is       91.2 secs

     Computing kpt #:    37  of    64
     total cpu time spent up to now is       93.5 secs

     Computing kpt #:    38  of    64
     total cpu time spent up to now is       95.9 secs

     Computing kpt #:    39  of    64
     c_bands:  1 eigenvalues not converged
     total cpu time spent up to now is       98.7 secs

     Computing kpt #:    40  of    64
     total cpu time spent up to now is      101.1 secs

     Computing kpt #:    41  of    64
     c_bands:  1 eigenvalues not converged
     total cpu time spent up to now is      103.7 secs

     Computing kpt #:    42  of    64
     total cpu time spent up to now is      106.2 secs

     Computing kpt #:    43  of    64
     total cpu time spent up to now is      108.7 secs

     Computing kpt #:    44  of    64
     c_bands:  1 eigenvalues not converged
     total cpu time spent up to now is      111.3 secs

     Computing kpt #:    45  of    64
     c_bands:  1 eigenvalues not converged
     total cpu time spent up to now is      114.0 secs

     Computing kpt #:    46  of    64
     c_bands:  1 eigenvalues not converged
     total cpu time spent up to now is      116.7 secs

     Computing kpt #:    47  of    64
     total cpu time spent up to now is      119.3 secs

     Computing kpt #:    48  of    64
     c_bands:  1 eigenvalues not converged
     total cpu time spent up to now is      121.9 secs

     Computing kpt #:    49  of    64
     total cpu time spent up to now is      124.5 secs

     Computing kpt #:    50  of    64
     total cpu time spent up to now is      127.1 secs

     Computing kpt #:    51  of    64
     total cpu time spent up to now is      129.7 secs

     Computing kpt #:    52  of    64
     total cpu time spent up to now is      132.1 secs

     Computing kpt #:    53  of    64
     c_bands:  1 eigenvalues not converged
     total cpu time spent up to now is      134.8 secs

     Computing kpt #:    54  of    64
     total cpu time spent up to now is      137.4 secs

     Computing kpt #:    55  of    64
     c_bands:  1 eigenvalues not converged
     total cpu time spent up to now is      140.1 secs

     Computing kpt #:    56  of    64
     c_bands:  1 eigenvalues not converged
     total cpu time spent up to now is      142.8 secs

     Computing kpt #:    57  of    64
     c_bands:  1 eigenvalues not converged
     total cpu time spent up to now is      145.5 secs

     Computing kpt #:    58  of    64
     c_bands:  1 eigenvalues not converged
     total cpu time spent up to now is      148.1 secs

     Computing kpt #:    59  of    64
     c_bands:  1 eigenvalues not converged
     total cpu time spent up to now is      150.9 secs

     Computing kpt #:    60  of    64
     c_bands:  1 eigenvalues not converged
     total cpu time spent up to now is      153.5 secs

     Computing kpt #:    61  of    64
     total cpu time spent up to now is      156.1 secs

     Computing kpt #:    62  of    64
     total cpu time spent up to now is      158.7 secs

     Computing kpt #:    63  of    64
     c_bands:  1 eigenvalues not converged
     total cpu time spent up to now is      161.3 secs

     Computing kpt #:    64  of    64
     total cpu time spent up to now is      164.1 secs

     ethr =  1.00E-11,  avg # of iterations =112.6

     total cpu time spent up to now is      164.2 secs

     End of band structure calculation

          k = 0.0625 0.0625 0.0205 (  8843 PWs)   bands (ev):

   -30.9615 -16.0400 -16.0339 -11.7604 -11.0890 -11.0781  -8.6275  -7.5091
    -7.3666  -7.1070  -6.6887  -6.3373  -1.3873  -1.1766  -0.8974  -0.8915
    -0.8162  -0.8038   4.4762   4.5239   4.6653   4.8885   4.9192   5.1336
     5.8422   6.4381   6.7815   6.8393   6.9565   7.0006   7.1169   7.1537
     7.4010   7.4242   7.5709   7.6097   7.6563   7.8172   7.8251   7.8705
     7.9316   8.1234   8.2921   8.4229   8.4576   8.5737   8.7545   8.7627
     8.8001  10.0857  10.1681  12.4592  13.2751  13.3250  13.6285  14.4909
    14.9881  15.2570  15.8006  15.8007

     occupation numbers 
     1.0000   1.0000   1.0000   1.0000   1.0000   1.0000   1.0000   1.0000
     1.0000   1.0000   1.0000   1.0000   1.0000   1.0000   1.0000   1.0000
     1.0000   1.0000   1.0000   1.0000   1.0000   1.0000   1.0000   1.0000
     1.0000   1.0000   1.0000   1.0000   1.0000   1.0000   1.0000   1.0000
     1.0000   1.0000   1.0000   1.0000   1.0000   1.0000   1.0000   1.0000
     1.0000   1.0000   1.0000   1.0000   1.0000   1.0000   1.0000   1.0000
     1.0000   1.0000   1.0000   0.0000   0.0000   0.0000   0.0000   0.0000
     0.0000   0.0000   0.0000   0.0000

          k = 0.0625 0.0625 0.0615 (  8832 PWs)   bands (ev):

   -30.9615 -16.0412 -16.0327 -11.7604 -11.0890 -11.0781  -8.6272  -7.5094
    -7.3666  -7.1070  -6.6885  -6.3375  -1.3760  -1.1889  -0.8982  -0.8907
    -0.8176  -0.8024   4.4749   4.5239   4.6749   4.8885   4.9250   5.1249
     5.8423   6.4494   6.7699   6.8353   6.9560   7.0070   7.1097   7.1163
     7.4156   7.4251   7.5685   7.5900   7.6523   7.7659   7.8554   7.9006
     7.9933   8.1599   8.2911   8.4288   8.4416   8.5734   8.7215   8.7286
     8.8135  10.0844  10.1690  12.5051  13.2723  13.3420  13.6053  14.4078
    14.9864  15.1915  15.7514  15.7992

     occupation numbers 
     1.0000   1.0000   1.0000   1.0000   1.0000   1.0000   1.0000   1.0000
     1.0000   1.0000   1.0000   1.0000   1.0000   1.0000   1.0000   1.0000
     1.0000   1.0000   1.0000   1.0000   1.0000   1.0000   1.0000   1.0000
     1.0000   1.0000   1.0000   1.0000   1.0000   1.0000   1.0000   1.0000
     1.0000   1.0000   1.0000   1.0000   1.0000   1.0000   1.0000   1.0000
     1.0000   1.0000   1.0000   1.0000   1.0000   1.0000   1.0000   1.0000
     1.0000   1.0000   1.0000   0.0000   0.0000   0.0000   0.0000   0.0000
     0.0000   0.0000   0.0000   0.0000

          k = 0.0625 0.0625 0.1025 (  8819 PWs)   bands (ev):

   -30.9615 -16.0424 -16.0315 -11.7605 -11.0890 -11.0781  -8.6268  -7.5098
    -7.3666  -7.1070  -6.6883  -6.3378  -1.3567  -1.2095  -0.8990  -0.8898
    -0.8191  -0.8007   4.4731   4.5239   4.6890   4.8884   4.9340   5.1112
     5.8423   6.4713   6.7430   6.8301   6.9631   7.0181   7.0660   7.0973
     7.4265   7.4322   7.5655   7.5662   7.6495   7.7260   7.8915   7.9302
     8.0637   8.2216   8.2896   8.4162   8.4387   8.5731   8.6510   8.6986
     8.8242  10.0827  10.1702  12.5778  13.2582  13.3723  13.5662  14.3194
    14.9852  15.0367  15.7964  15.8295

     occupation numbers 
     1.0000   1.0000   1.0000   1.0000   1.0000   1.0000   1.0000   1.0000
     1.0000   1.0000   1.0000   1.0000   1.0000   1.0000   1.0000   1.0000
     1.0000   1.0000   1.0000   1.0000   1.0000   1.0000   1.0000   1.0000
     1.0000   1.0000   1.0000   1.0000   1.0000   1.0000   1.0000   1.0000
     1.0000   1.0000   1.0000   1.0000   1.0000   1.0000   1.0000   1.0000
     1.0000   1.0000   1.0000   1.0000   1.0000   1.0000   1.0000   1.0000
     1.0000   1.0000   1.0000   0.0000   0.0000   0.0000   0.0000   0.0000
     0.0000   0.0000   0.0000   0.0000

          k = 0.0625 0.0625 0.1435 (  8823 PWs)   bands (ev):

   -30.9615 -16.0432 -16.0307 -11.7605 -11.0890 -11.0781  -8.6266  -7.5100
    -7.3666  -7.1070  -6.6881  -6.3380  -1.3389  -1.2282  -0.8995  -0.8893
    -0.8200  -0.7997   4.4718   4.5240   4.6994   4.8884   4.9410   5.1002
     5.8424   6.4938   6.7134   6.8273   6.9816   7.0225   7.0289   7.0855
     7.4276   7.4423   7.5516   7.5635   7.6482   7.7044   7.9143   7.9502
     8.1098   8.2811   8.2885   8.3971   8.4473   8.5728   8.5829   8.6778
     8.8297  10.0816  10.1711  12.6376  13.2373  13.4040  13.5284  14.2749
    14.9190  14.9853  15.7938  15.9296

     occupation numbers 
     1.0000   1.0000   1.0000   1.0000   1.0000   1.0000   1.0000   1.0000
     1.0000   1.0000   1.0000   1.0000   1.0000   1.0000   1.0000   1.0000
     1.0000   1.0000   1.0000   1.0000   1.0000   1.0000   1.0000   1.0000
     1.0000   1.0000   1.0000   1.0000   1.0000   1.0000   1.0000   1.0000
     1.0000   1.0000   1.0000   1.0000   1.0000   1.0000   1.0000   1.0000
     1.0000   1.0000   1.0000   1.0000   1.0000   1.0000   1.0000   1.0000
     1.0000   1.0000   1.0000   0.0000   0.0000   0.0000   0.0000   0.0000
     0.0000   0.0000   0.0000   0.0000

          k = 0.0625 0.1875 0.0205 (  8831 PWs)   bands (ev):

   -30.9567 -16.0021 -15.9963 -11.6809 -11.3199 -11.0752  -8.3822  -7.5707
    -7.2967  -7.1573  -6.7735  -6.4324  -1.3929  -1.2086  -0.9647  -0.9332
    -0.7531  -0.7260   4.2707   4.2972   4.6057   4.8706   4.9658   5.1776
     5.8015   6.2137   6.3761   6.3865   6.7315   6.9120   6.9443   7.1436
     7.2293   7.3012   7.3813   7.6251   7.6460   7.8943   8.0118   8.0590
     8.1264   8.2164   8.2376   8.4600   8.5149   8.5527   8.7832   9.1387
     9.3859   9.8945  10.0741  12.9967  13.0965  13.9601  14.2402  14.6808
    14.9340  15.2648  15.7865  16.0999

     occupation numbers 
     1.0000   1.0000   1.0000   1.0000   1.0000   1.0000   1.0000   1.0000
     1.0000   1.0000   1.0000   1.0000   1.0000   1.0000   1.0000   1.0000
     1.0000   1.0000   1.0000   1.0000   1.0000   1.0000   1.0000   1.0000
     1.0000   1.0000   1.0000   1.0000   1.0000   1.0000   1.0000   1.0000
     1.0000   1.0000   1.0000   1.0000   1.0000   1.0000   1.0000   1.0000
     1.0000   1.0000   1.0000   1.0000   1.0000   1.0000   1.0000   1.0000
     1.0000   1.0016   0.9810   0.0000   0.0000   0.0000   0.0000   0.0000
     0.0000   0.0000   0.0000   0.0000

          k = 0.0625 0.1875 0.0615 (  8841 PWs)   bands (ev):

   -30.9567 -16.0031 -15.9952 -11.6809 -11.3199 -11.0752  -8.3820  -7.5710
    -7.2964  -7.1575  -6.7728  -6.4331  -1.3844  -1.2177  -0.9632  -0.9346
    -0.7532  -0.7260   4.2741   4.2956   4.6054   4.8723   4.9729   5.1674
     5.8011   6.2306   6.3733   6.4008   6.7058   6.8945   6.9443   7.1204
     7.1748   7.3461   7.4209   7.6108   7.6610   7.8998   7.9880   8.0891
     8.1603   8.2140   8.2543   8.4458   8.5166   8.5514   8.7497   9.1411
     9.3747   9.8904  10.0737  13.0227  13.1110  13.9751  14.2104  14.6713
    14.9196  15.1364  15.7801  16.1127

     occupation numbers 
     1.0000   1.0000   1.0000   1.0000   1.0000   1.0000   1.0000   1.0000
     1.0000   1.0000   1.0000   1.0000   1.0000   1.0000   1.0000   1.0000
     1.0000   1.0000   1.0000   1.0000   1.0000   1.0000   1.0000   1.0000
     1.0000   1.0000   1.0000   1.0000   1.0000   1.0000   1.0000   1.0000
     1.0000   1.0000   1.0000   1.0000   1.0000   1.0000   1.0000   1.0000
     1.0000   1.0000   1.0000   1.0000   1.0000   1.0000   1.0000   1.0000
     1.0000   1.0027   0.9822   0.0000   0.0000   0.0000   0.0000   0.0000
     0.0000   0.0000   0.0000   0.0000

          k = 0.0625 0.1875 0.1025 (  8832 PWs)   bands (ev):

   -30.9567 -16.0043 -15.9940 -11.6810 -11.3199 -11.0752  -8.3817  -7.5715
    -7.2961  -7.1578  -6.7719  -6.4340  -1.3706  -1.2323  -0.9608  -0.9369
    -0.7534  -0.7258   4.2793   4.2929   4.6051   4.8747   4.9845   5.1514
     5.8010   6.2564   6.3729   6.4242   6.6578   6.8666   6.9557   7.0723
     7.1505   7.3820   7.4687   7.5855   7.6816   7.9042   7.9702   8.1114
     8.2132   8.2206   8.2840   8.4178   8.5229   8.5509   8.6907   9.1430
     9.3601   9.8845  10.0731  13.0630  13.1301  14.0043  14.1604  14.6679
    14.8965  14.9664  15.8117  16.1381

     occupation numbers 
     1.0000   1.0000   1.0000   1.0000   1.0000   1.0000   1.0000   1.0000
     1.0000   1.0000   1.0000   1.0000   1.0000   1.0000   1.0000   1.0000
     1.0000   1.0000   1.0000   1.0000   1.0000   1.0000   1.0000   1.0000
     1.0000   1.0000   1.0000   1.0000   1.0000   1.0000   1.0000   1.0000
     1.0000   1.0000   1.0000   1.0000   1.0000   1.0000   1.0000   1.0000
     1.0000   1.0000   1.0000   1.0000   1.0000   1.0000   1.0000   1.0000
     1.0000   1.0042   0.9840   0.0000   0.0000   0.0000   0.0000   0.0000
     0.0000   0.0000   0.0000   0.0000

          k = 0.0625 0.1875 0.1435 (  8832 PWs)   bands (ev):

   -30.9567 -16.0050 -15.9934 -11.6810 -11.3199 -11.0752  -8.3815  -7.5718
    -7.2958  -7.1581  -6.7712  -6.4346  -1.3587  -1.2448  -0.9587  -0.9389
    -0.7535  -0.7257   4.2842   4.2899   4.6048   4.8764   4.9941   5.1386
     5.8013   6.2759   6.3732   6.4520   6.6086   6.8474   6.9779   7.0270
     7.1423   7.4040   7.5106   7.5535   7.6960   7.9053   7.9616   8.1185
     8.2257   8.2620   8.3248   8.3805   8.5353   8.5560   8.6277   9.1433
     9.3508   9.8802  10.0728  13.0964  13.1403  14.0458  14.1041  14.6987
    14.7964  14.9077  15.8525  16.1735

     occupation numbers 
     1.0000   1.0000   1.0000   1.0000   1.0000   1.0000   1.0000   1.0000
     1.0000   1.0000   1.0000   1.0000   1.0000   1.0000   1.0000   1.0000
     1.0000   1.0000   1.0000   1.0000   1.0000   1.0000   1.0000   1.0000
     1.0000   1.0000   1.0000   1.0000   1.0000   1.0000   1.0000   1.0000
     1.0000   1.0000   1.0000   1.0000   1.0000   1.0000   1.0000   1.0000
     1.0000   1.0000   1.0000   1.0000   1.0000   1.0000   1.0000   1.0000
     1.0000   1.0052   0.9853   0.0000   0.0000   0.0000   0.0000   0.0000
     0.0000   0.0000   0.0000   0.0000

          k = 0.0625 0.3125 0.0205 (  8808 PWs)   bands (ev):

   -30.9498 -15.9472 -15.9419 -11.5988 -11.5590 -11.0646  -8.0643  -7.7605
    -7.2511  -7.1342  -6.8692  -6.5624  -1.3927  -1.2301  -1.0124  -0.9379
    -0.7030  -0.6797   3.7492   3.9183   4.7709   4.9100   4.9913   5.2133
     5.8041   5.8789   5.9497   6.0830   6.5912   6.6965   6.8845   6.9030
     6.9398   7.2114   7.2615   7.6013   7.6341   7.8235   8.0320   8.1398
     8.3176   8.3364   8.5119   8.7085   8.7232   8.7337   8.8349   9.3456
     9.7311   9.7500   9.9077  12.5950  13.7863  14.4972  14.7462  15.0695
    15.2030  15.5532  15.9829  16.4335

     occupation numbers 
     1.0000   1.0000   1.0000   1.0000   1.0000   1.0000   1.0000   1.0000
     1.0000   1.0000   1.0000   1.0000   1.0000   1.0000   1.0000   1.0000
     1.0000   1.0000   1.0000   1.0000   1.0000   1.0000   1.0000   1.0000
     1.0000   1.0000   1.0000   1.0000   1.0000   1.0000   1.0000   1.0000
     1.0000   1.0000   1.0000   1.0000   1.0000   1.0000   1.0000   1.0000
     1.0000   1.0000   1.0000   1.0000   1.0000   1.0000   1.0000   1.0000
     1.0000   1.0358   0.9954   0.0000   0.0000   0.0000   0.0000   0.0000
     0.0000   0.0000   0.0000   0.0000

          k = 0.0625 0.3125 0.0615 (  8827 PWs)   bands (ev):

   -30.9498 -15.9481 -15.9409 -11.5988 -11.5590 -11.0646  -8.0640  -7.7615
    -7.2475  -7.1346  -6.8732  -6.5610  -1.3866  -1.2363  -1.0092  -0.9413
    -0.7030  -0.6798   3.7524   3.9157   4.7701   4.9124   4.9958   5.2041
     5.8034   5.8874   5.9480   6.1140   6.5649   6.6723   6.8756   6.9027
     6.9241   7.1785   7.3060   7.6119   7.6323   7.8634   8.0393   8.1338
     8.3231   8.3480   8.5120   8.6736   8.7255   8.7485   8.8297   9.3489
     9.7243   9.7348   9.9032  12.6107  13.7748  14.5078  14.7395  15.0654
    15.1902  15.4782  15.9461  16.4045

     occupation numbers 
     1.0000   1.0000   1.0000   1.0000   1.0000   1.0000   1.0000   1.0000
     1.0000   1.0000   1.0000   1.0000   1.0000   1.0000   1.0000   1.0000
     1.0000   1.0000   1.0000   1.0000   1.0000   1.0000   1.0000   1.0000
     1.0000   1.0000   1.0000   1.0000   1.0000   1.0000   1.0000   1.0000
     1.0000   1.0000   1.0000   1.0000   1.0000   1.0000   1.0000   1.0000
     1.0000   1.0000   1.0000   1.0000   1.0000   1.0000   1.0000   1.0000
     1.0000   1.0378   0.9984   0.0000   0.0000   0.0000   0.0000   0.0000
     0.0000   0.0000   0.0000   0.0000

          k = 0.0625 0.3125 0.1025 (  8836 PWs)   bands (ev):

   -30.9498 -15.9491 -15.9399 -11.5988 -11.5591 -11.0646  -8.0637  -7.7629
    -7.2422  -7.1352  -6.8789  -6.5590  -1.3769  -1.2462  -1.0041  -0.9468
    -0.7031  -0.6799   3.7570   3.9117   4.7690   4.9159   5.0029   5.1901
     5.8057   5.8968   5.9453   6.1692   6.5111   6.6368   6.8569   6.8999
     6.9288   7.1481   7.3471   7.5815   7.6722   7.9191   8.0515   8.1222
     8.3292   8.3747   8.5123   8.6257   8.7288   8.7587   8.8222   9.3535
     9.7111   9.7162   9.8976  12.6341  13.7548  14.5270  14.7276  15.0638
    15.1670  15.4015  15.8966  16.3666

     occupation numbers 
     1.0000   1.0000   1.0000   1.0000   1.0000   1.0000   1.0000   1.0000
     1.0000   1.0000   1.0000   1.0000   1.0000   1.0000   1.0000   1.0000
     1.0000   1.0000   1.0000   1.0000   1.0000   1.0000   1.0000   1.0000
     1.0000   1.0000   1.0000   1.0000   1.0000   1.0000   1.0000   1.0000
     1.0000   1.0000   1.0000   1.0000   1.0000   1.0000   1.0000   1.0000
     1.0000   1.0000   1.0000   1.0000   1.0000   1.0000   1.0000   1.0000
     1.0000   1.0404   1.0024   0.0000   0.0000   0.0000   0.0000   0.0000
     0.0000   0.0000   0.0000   0.0000

          k = 0.0625 0.3125 0.1435 (  8837 PWs)   bands (ev):

   -30.9498 -15.9497 -15.9393 -11.5988 -11.5591 -11.0646  -8.0635  -7.7639
    -7.2384  -7.1356  -6.8829  -6.5576  -1.3691  -1.2542  -0.9998  -0.9513
    -0.7031  -0.6801   3.7604   3.9088   4.7682   4.9183   5.0088   5.1793
     5.8090   5.9024   5.9430   6.2270   6.4482   6.6151   6.8579   6.8771
     6.9487   7.1268   7.3740   7.5578   7.6983   7.9585   8.0660   8.1074
     8.3329   8.4072   8.5130   8.5794   8.7316   8.7638   8.8169   9.3567
     9.6966   9.7077   9.8941  12.6515  13.7380  14.5443  14.7163  15.0689
    15.1435  15.3605  15.8642  16.3413

     occupation numbers 
     1.0000   1.0000   1.0000   1.0000   1.0000   1.0000   1.0000   1.0000
     1.0000   1.0000   1.0000   1.0000   1.0000   1.0000   1.0000   1.0000
     1.0000   1.0000   1.0000   1.0000   1.0000   1.0000   1.0000   1.0000
     1.0000   1.0000   1.0000   1.0000   1.0000   1.0000   1.0000   1.0000
     1.0000   1.0000   1.0000   1.0000   1.0000   1.0000   1.0000   1.0000
     1.0000   1.0000   1.0000   1.0000   1.0000   1.0000   1.0000   1.0000
     1.0000   1.0420   1.0050   0.0000   0.0000   0.0000   0.0000   0.0000
     0.0000   0.0000   0.0000   0.0000

          k = 0.0625 0.4375 0.0205 (  8827 PWs)   bands (ev):

   -30.9449 -15.9074 -15.9025 -11.7713 -11.4645 -11.0571  -7.9318  -7.8277
    -7.2966  -7.0864  -6.8988  -6.6526  -1.3826  -1.2137  -1.0462  -0.9563
    -0.6675  -0.6541   3.4186   3.6162   4.9600   4.9671   4.9737   5.2301
     5.5687   5.5770   5.9334   6.0611   6.4592   6.5397   6.5930   6.7892
     7.0176   7.1345   7.2564   7.3841   7.6347   7.7368   8.0109   8.3125
     8.4717   8.4835   8.5006   8.7627   8.8978   8.9933   9.1188   9.3576
     9.6623   9.7501   9.9044  12.1020  14.3770  14.4207  14.7305  15.6745
    15.6982  15.8699  15.9281  16.3675

     occupation numbers 
     1.0000   1.0000   1.0000   1.0000   1.0000   1.0000   1.0000   1.0000
     1.0000   1.0000   1.0000   1.0000   1.0000   1.0000   1.0000   1.0000
     1.0000   1.0000   1.0000   1.0000   1.0000   1.0000   1.0000   1.0000
     1.0000   1.0000   1.0000   1.0000   1.0000   1.0000   1.0000   1.0000
     1.0000   1.0000   1.0000   1.0000   1.0000   1.0000   1.0000   1.0000
     1.0000   1.0000   1.0000   1.0000   1.0000   1.0000   1.0000   1.0000
     1.0000   1.0605   0.9329   0.0000   0.0000   0.0000   0.0000   0.0000
     0.0000   0.0000   0.0000   0.0000

          k = 0.0625 0.4375 0.0615 (  8815 PWs)   bands (ev):

   -30.9449 -15.9083 -15.9017 -11.7713 -11.4645 -11.0571  -7.9334  -7.8274
    -7.2864  -7.0867  -6.9171  -6.6429  -1.3747  -1.2221  -1.0453  -0.9574
    -0.6676  -0.6540   3.4209   3.6141   4.9624   4.9659   4.9753   5.2222
     5.5759   5.5795   5.9544   6.0607   6.4522   6.5479   6.5884   6.7473
     6.9651   7.1667   7.2360   7.4264   7.6119   7.7913   8.0304   8.3231
     8.4684   8.4876   8.4975   8.7215   8.8974   9.0067   9.1252   9.3554
     9.6513   9.7531   9.8863  12.1182  14.3180  14.4520  14.7131  15.6560
    15.7206  15.8199  15.9521  16.3581

     occupation numbers 
     1.0000   1.0000   1.0000   1.0000   1.0000   1.0000   1.0000   1.0000
     1.0000   1.0000   1.0000   1.0000   1.0000   1.0000   1.0000   1.0000
     1.0000   1.0000   1.0000   1.0000   1.0000   1.0000   1.0000   1.0000
     1.0000   1.0000   1.0000   1.0000   1.0000   1.0000   1.0000   1.0000
     1.0000   1.0000   1.0000   1.0000   1.0000   1.0000   1.0000   1.0000
     1.0000   1.0000   1.0000   1.0000   1.0000   1.0000   1.0000   1.0000
     1.0000   1.0588   0.9433   0.0000   0.0000   0.0000   0.0000   0.0000
     0.0000   0.0000   0.0000   0.0000

          k = 0.0625 0.4375 0.1025 (  8820 PWs)   bands (ev):

   -30.9449 -15.9092 -15.9007 -11.7713 -11.4645 -11.0571  -7.9356  -7.8271
    -7.2708  -7.0870  -6.9426  -6.6307  -1.3618  -1.2356  -1.0440  -0.9590
    -0.6679  -0.6538   3.4243   3.6111   4.9646   4.9657   4.9776   5.2111
     5.5827   5.5860   5.9890   6.0590   6.4437   6.5538   6.5730   6.7051
     6.9084   7.1949   7.2151   7.4757   7.5868   7.8503   8.0672   8.3488
     8.4641   8.4874   8.4936   8.6566   8.8967   9.0223   9.1350   9.3521
     9.6346   9.7601   9.8586  12.1418  14.2366  14.5060  14.6794  15.6425
    15.7383  15.8015  15.9394  16.3463

     occupation numbers 
     1.0000   1.0000   1.0000   1.0000   1.0000   1.0000   1.0000   1.0000
     1.0000   1.0000   1.0000   1.0000   1.0000   1.0000   1.0000   1.0000
     1.0000   1.0000   1.0000   1.0000   1.0000   1.0000   1.0000   1.0000
     1.0000   1.0000   1.0000   1.0000   1.0000   1.0000   1.0000   1.0000
     1.0000   1.0000   1.0000   1.0000   1.0000   1.0000   1.0000   1.0000
     1.0000   1.0000   1.0000   1.0000   1.0000   1.0000   1.0000   1.0000
     1.0000   1.0559   0.9578   0.0000   0.0000   0.0000   0.0000   0.0000
     0.0000   0.0000   0.0000   0.0000

          k = 0.0625 0.4375 0.1435 (  8821 PWs)   bands (ev):

   -30.9449 -15.9097 -15.9002 -11.7713 -11.4645 -11.0571  -7.9371  -7.8269
    -7.2586  -7.0873  -6.9609  -6.6230  -1.3508  -1.2471  -1.0431  -0.9602
    -0.6680  -0.6537   3.4268   3.6090   4.9638   4.9677   4.9795   5.2032
     5.5851   5.5929   6.0200   6.0551   6.4384   6.5338   6.5705   6.6931
     6.8705   7.1965   7.2179   7.5063   7.5700   7.8822   8.1014   8.3955
     8.4484   8.4734   8.4966   8.6017   8.8962   9.0317   9.1423   9.3497
     9.6221   9.7690   9.8355  12.1591  14.1803  14.5690  14.6308  15.6354
    15.7471  15.8070  15.9165  16.3385

     occupation numbers 
     1.0000   1.0000   1.0000   1.0000   1.0000   1.0000   1.0000   1.0000
     1.0000   1.0000   1.0000   1.0000   1.0000   1.0000   1.0000   1.0000
     1.0000   1.0000   1.0000   1.0000   1.0000   1.0000   1.0000   1.0000
     1.0000   1.0000   1.0000   1.0000   1.0000   1.0000   1.0000   1.0000
     1.0000   1.0000   1.0000   1.0000   1.0000   1.0000   1.0000   1.0000
     1.0000   1.0000   1.0000   1.0000   1.0000   1.0000   1.0000   1.0000
     1.0000   1.0530   0.9686   0.0000   0.0000   0.0000   0.0000   0.0000
     0.0000   0.0000   0.0000   0.0000

          k = 0.1875 0.1875 0.0205 (  8825 PWs)   bands (ev):

   -30.9519 -15.9663 -15.9607 -11.6035 -11.3300 -11.2823  -8.1364  -7.5597
    -7.2690  -7.2231  -6.8149  -6.4763  -1.3723  -1.2061  -1.1660  -1.1457
    -0.7365  -0.6750   3.9763   4.2080   4.5458   4.6405   5.0730   5.2122
     5.7161   5.7965   5.8043   6.2650   6.6876   6.8423   6.9158   7.0010
     7.1989   7.1996   7.4079   7.6813   7.8288   8.0280   8.0724   8.2477
     8.2740   8.2956   8.2981   8.4377   8.5387   8.5603   8.9687   9.7549
     9.7784   9.8916  10.1774  13.0375  13.3984  14.3542  14.4776  14.8341
    14.9863  15.1761  15.9080  16.1743

     occupation numbers 
     1.0000   1.0000   1.0000   1.0000   1.0000   1.0000   1.0000   1.0000
     1.0000   1.0000   1.0000   1.0000   1.0000   1.0000   1.0000   1.0000
     1.0000   1.0000   1.0000   1.0000   1.0000   1.0000   1.0000   1.0000
     1.0000   1.0000   1.0000   1.0000   1.0000   1.0000   1.0000   1.0000
     1.0000   1.0000   1.0000   1.0000   1.0000   1.0000   1.0000   1.0000
     1.0000   1.0000   1.0000   1.0000   1.0000   1.0000   1.0000   1.0000
     1.0000   1.0009   0.6114   0.0000   0.0000   0.0000   0.0000   0.0000
     0.0000   0.0000   0.0000   0.0000

          k = 0.1875 0.1875 0.0615 (  8805 PWs)   bands (ev):

   -30.9518 -15.9673 -15.9597 -11.6036 -11.3300 -11.2823  -8.1362  -7.5601
    -7.2690  -7.2231  -6.8135  -6.4775  -1.3672  -1.2117  -1.1645  -1.1472
    -0.7336  -0.6776   3.9814   4.2028   4.5458   4.6405   5.0767   5.2028
     5.7159   5.7963   5.8121   6.2989   6.6732   6.8424   6.8739   6.9294
     7.1624   7.3148   7.4349   7.6895   7.8161   8.0361   8.0921   8.2306
     8.2755   8.2987   8.3111   8.4389   8.5438   8.5615   8.9178   9.7514
     9.7684   9.9028  10.1765  13.0519  13.4072  14.3488  14.4925  14.7889
    15.0823  15.1549  15.6404  16.2633

     occupation numbers 
     1.0000   1.0000   1.0000   1.0000   1.0000   1.0000   1.0000   1.0000
     1.0000   1.0000   1.0000   1.0000   1.0000   1.0000   1.0000   1.0000
     1.0000   1.0000   1.0000   1.0000   1.0000   1.0000   1.0000   1.0000
     1.0000   1.0000   1.0000   1.0000   1.0000   1.0000   1.0000   1.0000
     1.0000   1.0000   1.0000   1.0000   1.0000   1.0000   1.0000   1.0000
     1.0000   1.0000   1.0000   1.0000   1.0000   1.0000   1.0000   1.0000
     1.0000   0.9961   0.6154   0.0000   0.0000   0.0000   0.0000   0.0000
     0.0000   0.0000   0.0000   0.0000

          k = 0.1875 0.1875 0.1025 (  8814 PWs)   bands (ev):

   -30.9518 -15.9683 -15.9587 -11.6036 -11.3300 -11.2823  -8.1359  -7.5608
    -7.2690  -7.2231  -6.8115  -6.4792  -1.3594  -1.2201  -1.1617  -1.1501
    -0.7290  -0.6819   3.9890   4.1950   4.5457   4.6405   5.0830   5.1885
     5.7170   5.7961   5.8219   6.3639   6.6431   6.7490   6.8424   6.9553
     7.1120   7.4235   7.4654   7.6865   7.8046   8.0501   8.1257   8.2060
     8.2527   8.3008   8.3439   8.4555   8.5589   8.5631   8.8273   9.7464
     9.7566   9.9163  10.1752  13.0730  13.4189  14.3410  14.5169  14.7566
    15.1363  15.1967  15.4135  16.2910

     occupation numbers 
     1.0000   1.0000   1.0000   1.0000   1.0000   1.0000   1.0000   1.0000
     1.0000   1.0000   1.0000   1.0000   1.0000   1.0000   1.0000   1.0000
     1.0000   1.0000   1.0000   1.0000   1.0000   1.0000   1.0000   1.0000
     1.0000   1.0000   1.0000   1.0000   1.0000   1.0000   1.0000   1.0000
     1.0000   1.0000   1.0000   1.0000   1.0000   1.0000   1.0000   1.0000
     1.0000   1.0000   1.0000   1.0000   1.0000   1.0000   1.0000   1.0000
     1.0000   0.9884   0.6216   0.0000   0.0000   0.0000   0.0000   0.0000
     0.0000   0.0000   0.0000   0.0000

          k = 0.1875 0.1875 0.1435 (  8815 PWs)   bands (ev):

   -30.9518 -15.9689 -15.9581 -11.6036 -11.3300 -11.2823  -8.1357  -7.5613
    -7.2690  -7.2231  -6.8101  -6.4803  -1.3533  -1.2268  -1.1581  -1.1536
    -0.7252  -0.6856   3.9948   4.1891   4.5457   4.6405   5.0885   5.1774
     5.7185   5.7958   5.8281   6.4534   6.5669   6.6865   6.8423   6.9870
     7.0662   7.4840   7.4996   7.6639   7.8036   8.0631   8.1643   8.1862
     8.2196   8.3014   8.3592   8.4843   8.5642   8.6041   8.7218   9.7429
     9.7493   9.9249  10.1742  13.0886  13.4265  14.3356  14.5374  14.7417
    15.1512  15.2561  15.2808  16.3003

     occupation numbers 
     1.0000   1.0000   1.0000   1.0000   1.0000   1.0000   1.0000   1.0000
     1.0000   1.0000   1.0000   1.0000   1.0000   1.0000   1.0000   1.0000
     1.0000   1.0000   1.0000   1.0000   1.0000   1.0000   1.0000   1.0000
     1.0000   1.0000   1.0000   1.0000   1.0000   1.0000   1.0000   1.0000
     1.0000   1.0000   1.0000   1.0000   1.0000   1.0000   1.0000   1.0000
     1.0000   1.0000   1.0000   1.0000   1.0000   1.0000   1.0000   1.0000
     1.0000   0.9821   0.6264   0.0000   0.0000   0.0000   0.0000   0.0000
     0.0000   0.0000   0.0000   0.0000

          k = 0.1875 0.3125 0.0205 (  8818 PWs)   bands (ev):

   -30.9450 -15.9146 -15.9093 -11.5829 -11.4851 -11.2866  -7.8159  -7.6893
    -7.2892  -7.1645  -6.8564  -6.5393  -1.3838  -1.2825  -1.2592  -1.1763
    -0.8442  -0.7780   3.4594   3.8357   4.5497   4.5911   5.0829   5.2099
     5.3214   5.3549   5.8320   6.1978   6.5247   6.6088   6.9011   6.9805
     7.1698   7.3091   7.3573   7.5814   7.9472   8.0354   8.2159   8.3004
     8.4475   8.4642   8.5163   8.5935   8.7470   8.7909   9.0304   9.7087
    10.0574  10.2024  10.4163  12.7407  13.9480  14.0538  14.3509  15.4878
    15.7085  15.7927  16.0142  16.2842

     occupation numbers 
     1.0000   1.0000   1.0000   1.0000   1.0000   1.0000   1.0000   1.0000
     1.0000   1.0000   1.0000   1.0000   1.0000   1.0000   1.0000   1.0000
     1.0000   1.0000   1.0000   1.0000   1.0000   1.0000   1.0000   1.0000
     1.0000   1.0000   1.0000   1.0000   1.0000   1.0000   1.0000   1.0000
     1.0000   1.0000   1.0000   1.0000   1.0000   1.0000   1.0000   1.0000
     1.0000   1.0000   1.0000   1.0000   1.0000   1.0000   1.0000   1.0000
     1.0000   0.5101   0.0310   0.0000   0.0000   0.0000   0.0000   0.0000
     0.0000   0.0000   0.0000   0.0000

          k = 0.1875 0.3125 0.0615 (  8825 PWs)   bands (ev):

   -30.9450 -15.9155 -15.9085 -11.5829 -11.4851 -11.2866  -7.8155  -7.6902
    -7.2893  -7.1623  -6.8583  -6.5391  -1.3817  -1.2837  -1.2558  -1.1811
    -0.8406  -0.7817   3.4635   3.8311   4.5505   4.5894   5.0836   5.1977
     5.3283   5.3634   5.8312   6.2205   6.5198   6.6034   6.8148   6.9653
     7.2725   7.3008   7.3713   7.5849   7.9241   8.0515   8.2206   8.3148
     8.4407   8.4732   8.5144   8.5880   8.7477   8.7853   8.9996   9.7053
    10.0488  10.2149  10.4100  12.7571  13.9535  14.0544  14.3421  15.4859
    15.7151  15.7809  15.9387  16.2425

     occupation numbers 
     1.0000   1.0000   1.0000   1.0000   1.0000   1.0000   1.0000   1.0000
     1.0000   1.0000   1.0000   1.0000   1.0000   1.0000   1.0000   1.0000
     1.0000   1.0000   1.0000   1.0000   1.0000   1.0000   1.0000   1.0000
     1.0000   1.0000   1.0000   1.0000   1.0000   1.0000   1.0000   1.0000
     1.0000   1.0000   1.0000   1.0000   1.0000   1.0000   1.0000   1.0000
     1.0000   1.0000   1.0000   1.0000   1.0000   1.0000   1.0000   1.0000
     1.0000   0.4844   0.0386   0.0000   0.0000   0.0000   0.0000   0.0000
     0.0000   0.0000   0.0000   0.0000

          k = 0.1875 0.3125 0.1025 (  8825 PWs)   bands (ev):

   -30.9450 -15.9164 -15.9076 -11.5829 -11.4851 -11.2866  -7.8149  -7.6915
    -7.2894  -7.1591  -6.8610  -6.5387  -1.3786  -1.2853  -1.2502  -1.1887
    -0.8344  -0.7879   3.4694   3.8245   4.5516   4.5869   5.0845   5.1827
     5.3379   5.3732   5.8300   6.2595   6.5128   6.5918   6.7190   6.9616
     7.2881   7.3778   7.3944   7.5786   7.8975   8.0731   8.2216   8.3430
     8.4411   8.4812   8.5131   8.5745   8.7436   8.7735   8.9587   9.7006
    10.0383  10.2318  10.4002  12.7812  13.9223  14.1073  14.3178  15.4780
    15.7135  15.7466  15.9290  16.2286

     occupation numbers 
     1.0000   1.0000   1.0000   1.0000   1.0000   1.0000   1.0000   1.0000
     1.0000   1.0000   1.0000   1.0000   1.0000   1.0000   1.0000   1.0000
     1.0000   1.0000   1.0000   1.0000   1.0000   1.0000   1.0000   1.0000
     1.0000   1.0000   1.0000   1.0000   1.0000   1.0000   1.0000   1.0000
     1.0000   1.0000   1.0000   1.0000   1.0000   1.0000   1.0000   1.0000
     1.0000   1.0000   1.0000   1.0000   1.0000   1.0000   1.0000   1.0000
     1.0000   0.4498   0.0504   0.0000   0.0000   0.0000   0.0000   0.0000
     0.0000   0.0000   0.0000   0.0000

          k = 0.1875 0.3125 0.1435 (  8826 PWs)   bands (ev):

   -30.9450 -15.9169 -15.9070 -11.5828 -11.4852 -11.2866  -7.8145  -7.6924
    -7.2895  -7.1569  -6.8630  -6.5385  -1.3763  -1.2865  -1.2453  -1.1951
    -0.8288  -0.7935   3.4738   3.8197   4.5525   4.5851   5.0851   5.1732
     5.3448   5.3789   5.8291   6.2957   6.5077   6.5732   6.6640   6.9607
     7.2818   7.3972   7.4739   7.5494   7.8822   8.0887   8.2199   8.3661
     8.4523   8.4874   8.5197   8.5490   8.7287   8.7671   8.9338   9.6973
    10.0317  10.2439  10.3925  12.7988  13.8906  14.1827  14.2733  15.4685
    15.6701  15.7607  15.9941  16.1245

     occupation numbers 
     1.0000   1.0000   1.0000   1.0000   1.0000   1.0000   1.0000   1.0000
     1.0000   1.0000   1.0000   1.0000   1.0000   1.0000   1.0000   1.0000
     1.0000   1.0000   1.0000   1.0000   1.0000   1.0000   1.0000   1.0000
     1.0000   1.0000   1.0000   1.0000   1.0000   1.0000   1.0000   1.0000
     1.0000   1.0000   1.0000   1.0000   1.0000   1.0000   1.0000   1.0000
     1.0000   1.0000   1.0000   1.0000   1.0000   1.0000   1.0000   1.0000
     1.0000   0.4260   0.0596   0.0000   0.0000   0.0000   0.0000   0.0000
     0.0000   0.0000   0.0000   0.0000

          k = 0.1875 0.4375 0.0205 (  8826 PWs)   bands (ev):

   -30.9402 -15.8773 -15.8723 -11.7525 -11.3934 -11.2753  -7.8491  -7.5690
    -7.2404  -7.2054  -6.8513  -6.5857  -1.3932  -1.2651  -1.2543  -1.1727
    -0.9790  -0.9377   3.1107   3.5029   4.5347   4.7498   4.8678   5.0307
     5.1941   5.2419   5.9784   6.1335   6.3823   6.5981   6.8099   6.9821
     7.1693   7.2352   7.5671   7.5888   7.7704   7.9717   8.2880   8.4459
     8.4630   8.5549   8.5818   8.8161   8.9570   9.0753   9.1288   9.7636
     9.9111  10.3344  10.6025  12.3399  13.6384  14.3019  14.6293  15.6328
    15.6883  16.2863  16.3373  16.4861

     occupation numbers 
     1.0000   1.0000   1.0000   1.0000   1.0000   1.0000   1.0000   1.0000
     1.0000   1.0000   1.0000   1.0000   1.0000   1.0000   1.0000   1.0000
     1.0000   1.0000   1.0000   1.0000   1.0000   1.0000   1.0000   1.0000
     1.0000   1.0000   1.0000   1.0000   1.0000   1.0000   1.0000   1.0000
     1.0000   1.0000   1.0000   1.0000   1.0000   1.0000   1.0000   1.0000
     1.0000   1.0000   1.0000   1.0000   1.0000   1.0000   1.0000   1.0000
     1.0000   0.2066  -0.0084   0.0000   0.0000   0.0000   0.0000   0.0000
     0.0000   0.0000   0.0000   0.0000

          k = 0.1875 0.4375 0.0615 (  8830 PWs)   bands (ev):

   -30.9402 -15.8780 -15.8715 -11.7525 -11.3935 -11.2753  -7.8503  -7.5686
    -7.2405  -7.1970  -6.8657  -6.5787  -1.3885  -1.2687  -1.2522  -1.1766
    -0.9761  -0.9406   3.1140   3.4992   4.5363   4.7443   4.8708   5.0221
     5.2039   5.2462   5.9787   6.1393   6.3861   6.5950   6.7796   6.9254
     7.1849   7.3171   7.5575   7.5966   7.7669   7.9773   8.3102   8.4467
     8.4637   8.5519   8.5825   8.8150   8.8781   9.0917   9.1446   9.7598
     9.9064  10.3400  10.5978  12.3522  13.6935  14.2671  14.5634  15.6372
    15.7324  16.2296  16.3529  16.5332

     occupation numbers 
     1.0000   1.0000   1.0000   1.0000   1.0000   1.0000   1.0000   1.0000
     1.0000   1.0000   1.0000   1.0000   1.0000   1.0000   1.0000   1.0000
     1.0000   1.0000   1.0000   1.0000   1.0000   1.0000   1.0000   1.0000
     1.0000   1.0000   1.0000   1.0000   1.0000   1.0000   1.0000   1.0000
     1.0000   1.0000   1.0000   1.0000   1.0000   1.0000   1.0000   1.0000
     1.0000   1.0000   1.0000   1.0000   1.0000   1.0000   1.0000   1.0000
     1.0000   0.2005  -0.0027   0.0000   0.0000   0.0000   0.0000   0.0000
     0.0000   0.0000   0.0000   0.0000

          k = 0.1875 0.4375 0.1025 (  8838 PWs)   bands (ev):

   -30.9402 -15.8789 -15.8707 -11.7525 -11.3935 -11.2753  -7.8521  -7.5681
    -7.2406  -7.1842  -6.8862  -6.5695  -1.3814  -1.2734  -1.2498  -1.1823
    -0.9710  -0.9457   3.1188   3.4939   4.5387   4.7365   4.8751   5.0112
     5.2166   5.2522   5.9790   6.1480   6.3925   6.5931   6.7296   6.8801
     7.2044   7.4117   7.5463   7.5960   7.7533   8.0013   8.3467   8.4487
     8.4676   8.5467   8.5840   8.7645   8.8203   9.0983   9.1636   9.7546
     9.9001  10.3478  10.5911  12.3699  13.7879  14.2000  14.4787  15.6466
    15.8208  16.1726  16.2957  16.5433

     occupation numbers 
     1.0000   1.0000   1.0000   1.0000   1.0000   1.0000   1.0000   1.0000
     1.0000   1.0000   1.0000   1.0000   1.0000   1.0000   1.0000   1.0000
     1.0000   1.0000   1.0000   1.0000   1.0000   1.0000   1.0000   1.0000
     1.0000   1.0000   1.0000   1.0000   1.0000   1.0000   1.0000   1.0000
     1.0000   1.0000   1.0000   1.0000   1.0000   1.0000   1.0000   1.0000
     1.0000   1.0000   1.0000   1.0000   1.0000   1.0000   1.0000   1.0000
     1.0000   0.1917   0.0058   0.0000   0.0000   0.0000   0.0000   0.0000
     0.0000   0.0000   0.0000   0.0000

          k = 0.1875 0.4375 0.1435 (  8833 PWs)   bands (ev):

   -30.9402 -15.8794 -15.8702 -11.7525 -11.3935 -11.2753  -7.8534  -7.5677
    -7.2407  -7.1743  -6.9011  -6.5636  -1.3758  -1.2769  -1.2483  -1.1865
    -0.9654  -0.9513   3.1223   3.4901   4.5405   4.7310   4.8783   5.0040
     5.2250   5.2564   5.9791   6.1545   6.3980   6.5965   6.6877   6.8590
     7.2176   7.4858   7.5432   7.5722   7.7397   8.0284   8.3800   8.4515
     8.4821   8.5395   8.5878   8.6704   8.8187   9.1005   9.1745   9.7510
     9.8958  10.3533  10.5863  12.3828  13.8842  14.1220  14.4238  15.6546
    15.9368  16.1352  16.1711  16.5232

     occupation numbers 
     1.0000   1.0000   1.0000   1.0000   1.0000   1.0000   1.0000   1.0000
     1.0000   1.0000   1.0000   1.0000   1.0000   1.0000   1.0000   1.0000
     1.0000   1.0000   1.0000   1.0000   1.0000   1.0000   1.0000   1.0000
     1.0000   1.0000   1.0000   1.0000   1.0000   1.0000   1.0000   1.0000
     1.0000   1.0000   1.0000   1.0000   1.0000   1.0000   1.0000   1.0000
     1.0000   1.0000   1.0000   1.0000   1.0000   1.0000   1.0000   1.0000
     1.0000   0.1851   0.0124   0.0000   0.0000   0.0000   0.0000   0.0000
     0.0000   0.0000   0.0000   0.0000

          k = 0.3125 0.3125 0.0205 (  8854 PWs)   bands (ev):

   -30.9383 -15.8677 -15.8625 -11.5756 -11.5395 -11.3722  -7.6193  -7.4975
    -7.4824  -7.0591  -6.8335  -6.5070  -1.5083  -1.4864  -1.3743  -1.2251
    -1.1044  -1.0418   2.9545   3.5226   4.3314   4.3695   4.6438   5.0454
     5.1850   5.4876   5.7083   6.2582   6.3349   6.4733   6.9025   7.0068
     7.2556   7.5994   7.6175   7.7768   8.2539   8.2880   8.3511   8.4504
     8.5223   8.5618   8.6546   8.7356   8.7631   8.9938   9.1073   9.8028
    10.1874  10.9684  11.0932  12.7338  13.6381  13.7228  14.5428  15.3094
    15.9464  16.2231  16.2660  16.4190

     occupation numbers 
     1.0000   1.0000   1.0000   1.0000   1.0000   1.0000   1.0000   1.0000
     1.0000   1.0000   1.0000   1.0000   1.0000   1.0000   1.0000   1.0000
     1.0000   1.0000   1.0000   1.0000   1.0000   1.0000   1.0000   1.0000
     1.0000   1.0000   1.0000   1.0000   1.0000   1.0000   1.0000   1.0000
     1.0000   1.0000   1.0000   1.0000   1.0000   1.0000   1.0000   1.0000
     1.0000   1.0000   1.0000   1.0000   1.0000   1.0000   1.0000   1.0000
     0.9319  -0.0516  -0.0043   0.0000   0.0000   0.0000   0.0000   0.0000
     0.0000   0.0000   0.0000   0.0000

          k = 0.3125 0.3125 0.0615 (  8839 PWs)   bands (ev):

   -30.9383 -15.8684 -15.8618 -11.5756 -11.5395 -11.3722  -7.6202  -7.4964
    -7.4824  -7.0591  -6.8333  -6.5073  -1.5069  -1.4878  -1.3694  -1.2308
    -1.1011  -1.0449   2.9586   3.5165   4.3314   4.3695   4.6494   5.0386
     5.1869   5.4910   5.7082   6.2638   6.3356   6.4673   6.8372   7.0086
     7.3570   7.6120   7.6227   7.7637   8.2411   8.2535   8.3618   8.4495
     8.5353   8.5629   8.6404   8.7343   8.7873   8.9282   9.1313   9.8013
    10.1867  10.9700  11.0921  12.7793  13.6321  13.7395  14.4996  15.2704
    15.9356  16.0679  16.1346  16.6017

     occupation numbers 
     1.0000   1.0000   1.0000   1.0000   1.0000   1.0000   1.0000   1.0000
     1.0000   1.0000   1.0000   1.0000   1.0000   1.0000   1.0000   1.0000
     1.0000   1.0000   1.0000   1.0000   1.0000   1.0000   1.0000   1.0000
     1.0000   1.0000   1.0000   1.0000   1.0000   1.0000   1.0000   1.0000
     1.0000   1.0000   1.0000   1.0000   1.0000   1.0000   1.0000   1.0000
     1.0000   1.0000   1.0000   1.0000   1.0000   1.0000   1.0000   1.0000
     0.9346  -0.0503  -0.0046   0.0000   0.0000   0.0000   0.0000   0.0000
     0.0000   0.0000   0.0000   0.0000

          k = 0.3125 0.3125 0.1025 (  8841 PWs)   bands (ev):

   -30.9383 -15.8692 -15.8610 -11.5755 -11.5395 -11.3722  -7.6214  -7.4949
    -7.4824  -7.0591  -6.8331  -6.5078  -1.5043  -1.4904  -1.3618  -1.2394
    -1.0958  -1.0498   2.9645   3.5078   4.3314   4.3695   4.6575   5.0289
     5.1893   5.4957   5.7080   6.2731   6.3366   6.4574   6.7725   7.0112
     7.4818   7.6293   7.6361   7.7386   8.2023   8.2239   8.3805   8.4410
     8.5593   8.5645   8.6268   8.7334   8.8142   8.8414   9.1514   9.7993
    10.1856  10.9723  11.0904  12.8492  13.6133  13.7639  14.4501  15.2189
    15.9178  15.9559  15.9959  16.6834

     occupation numbers 
     1.0000   1.0000   1.0000   1.0000   1.0000   1.0000   1.0000   1.0000
     1.0000   1.0000   1.0000   1.0000   1.0000   1.0000   1.0000   1.0000
     1.0000   1.0000   1.0000   1.0000   1.0000   1.0000   1.0000   1.0000
     1.0000   1.0000   1.0000   1.0000   1.0000   1.0000   1.0000   1.0000
     1.0000   1.0000   1.0000   1.0000   1.0000   1.0000   1.0000   1.0000
     1.0000   1.0000   1.0000   1.0000   1.0000   1.0000   1.0000   1.0000
     0.9383  -0.0484  -0.0052   0.0000   0.0000   0.0000   0.0000   0.0000
     0.0000   0.0000   0.0000   0.0000

          k = 0.3125 0.3125 0.1435 (  8843 PWs)   bands (ev):

   -30.9383 -15.8697 -15.8605 -11.5755 -11.5395 -11.3722  -7.6223  -7.4939
    -7.4824  -7.0591  -6.8330  -6.5081  -1.5017  -1.4931  -1.3557  -1.2462
    -1.0914  -1.0541   2.9689   3.5016   4.3314   4.3695   4.6635   5.0219
     5.1910   5.4991   5.7079   6.2808   6.3374   6.4492   6.7362   7.0131
     7.5733   7.6305   7.6688   7.7051   8.1600   8.2122   8.4026   8.4252
     8.5659   8.5847   8.6195   8.7369   8.7688   8.8306   9.1621   9.7979
    10.1849  10.9740  11.0892  12.9044  13.5899  13.7818  14.4246  15.1818
    15.8871  15.9131  15.9162  16.7380

     occupation numbers 
     1.0000   1.0000   1.0000   1.0000   1.0000   1.0000   1.0000   1.0000
     1.0000   1.0000   1.0000   1.0000   1.0000   1.0000   1.0000   1.0000
     1.0000   1.0000   1.0000   1.0000   1.0000   1.0000   1.0000   1.0000
     1.0000   1.0000   1.0000   1.0000   1.0000   1.0000   1.0000   1.0000
     1.0000   1.0000   1.0000   1.0000   1.0000   1.0000   1.0000   1.0000
     1.0000   1.0000   1.0000   1.0000   1.0000   1.0000   1.0000   1.0000
     0.9409  -0.0470  -0.0056   0.0000   0.0000   0.0000   0.0000   0.0000
     0.0000   0.0000   0.0000   0.0000

          k = 0.3125 0.4375 0.0205 (  8856 PWs)   bands (ev):

   -30.9335 -15.8339 -15.8288 -11.7260 -11.5406 -11.2851  -7.7265  -7.4652
    -7.2486  -7.0609  -6.7869  -6.4858  -1.5656  -1.5353  -1.4538  -1.3660
    -1.3027  -1.1946   2.5933   3.1890   4.2486   4.3301   4.3700   4.9381
     5.1554   5.4883   5.7731   6.1331   6.2098   6.5320   6.9211   7.0409
     7.3003   7.6814   7.8256   8.0916   8.1257   8.3943   8.4407   8.5675
     8.6068   8.6527   8.7566   8.7802   8.9956   9.1034   9.2796   9.9728
    10.1381  11.3295  11.4485  12.6475  13.0515  13.7360  14.8426  15.3869
    15.5461  16.1061  16.1455  16.3911

     occupation numbers 
     1.0000   1.0000   1.0000   1.0000   1.0000   1.0000   1.0000   1.0000
     1.0000   1.0000   1.0000   1.0000   1.0000   1.0000   1.0000   1.0000
     1.0000   1.0000   1.0000   1.0000   1.0000   1.0000   1.0000   1.0000
     1.0000   1.0000   1.0000   1.0000   1.0000   1.0000   1.0000   1.0000
     1.0000   1.0000   1.0000   1.0000   1.0000   1.0000   1.0000   1.0000
     1.0000   1.0000   1.0000   1.0000   1.0000   1.0000   1.0000   1.0000
     0.9836   0.0000   0.0000   0.0000   0.0000   0.0000   0.0000   0.0000
     0.0000   0.0000   0.0000   0.0000

          k = 0.3125 0.4375 0.0615 (  8854 PWs)   bands (ev):

   -30.9335 -15.8345 -15.8282 -11.7260 -11.5406 -11.2851  -7.7272  -7.4652
    -7.2474  -7.0572  -6.7942  -6.4826  -1.5646  -1.5362  -1.4472  -1.3705
    -1.2999  -1.2004   2.5971   3.1836   4.2488   4.3294   4.3764   4.9318
     5.1577   5.4911   5.7727   6.1321   6.2187   6.5051   6.9050   7.0130
     7.4098   7.6973   7.8281   8.0503   8.1512   8.3900   8.3966   8.5642
     8.6177   8.6632   8.7614   8.7756   8.9350   9.0811   9.3262   9.9719
    10.1371  11.3308  11.4478  12.6848  13.1028  13.7049  14.8173  15.2874
    15.5835  15.9405  16.0927  16.5527

     occupation numbers 
     1.0000   1.0000   1.0000   1.0000   1.0000   1.0000   1.0000   1.0000
     1.0000   1.0000   1.0000   1.0000   1.0000   1.0000   1.0000   1.0000
     1.0000   1.0000   1.0000   1.0000   1.0000   1.0000   1.0000   1.0000
     1.0000   1.0000   1.0000   1.0000   1.0000   1.0000   1.0000   1.0000
     1.0000   1.0000   1.0000   1.0000   1.0000   1.0000   1.0000   1.0000
     1.0000   1.0000   1.0000   1.0000   1.0000   1.0000   1.0000   1.0000
     0.9863   0.0000   0.0000   0.0000   0.0000   0.0000   0.0000   0.0000
     0.0000   0.0000   0.0000   0.0000

          k = 0.3125 0.4375 0.1025 (  8852 PWs)   bands (ev):

   -30.9335 -15.8353 -15.8274 -11.7260 -11.5406 -11.2851  -7.7282  -7.4653
    -7.2457  -7.0514  -6.8048  -6.4784  -1.5632  -1.5376  -1.4359  -1.3786
    -1.2953  -1.2092   2.6024   3.1757   4.2491   4.3284   4.3856   4.9228
     5.1610   5.4949   5.7722   6.1309   6.2339   6.4653   6.8853   6.9962
     7.5530   7.7237   7.8295   8.0073   8.1681   8.3198   8.3983   8.5542
     8.6262   8.6794   8.7609   8.7724   8.8458   9.0818   9.3657   9.9706
    10.1357  11.3328  11.4468  12.7361  13.1968  13.6402  14.7695  15.1981
    15.6374  15.7888  16.0308  16.6868

     occupation numbers 
     1.0000   1.0000   1.0000   1.0000   1.0000   1.0000   1.0000   1.0000
     1.0000   1.0000   1.0000   1.0000   1.0000   1.0000   1.0000   1.0000
     1.0000   1.0000   1.0000   1.0000   1.0000   1.0000   1.0000   1.0000
     1.0000   1.0000   1.0000   1.0000   1.0000   1.0000   1.0000   1.0000
     1.0000   1.0000   1.0000   1.0000   1.0000   1.0000   1.0000   1.0000
     1.0000   1.0000   1.0000   1.0000   1.0000   1.0000   1.0000   1.0000
     0.9900   0.0000   0.0000   0.0000   0.0000   0.0000   0.0000   0.0000
     0.0000   0.0000   0.0000   0.0000

          k = 0.3125 0.4375 0.1435 (  8857 PWs)   bands (ev):

   -30.9335 -15.8357 -15.8270 -11.7260 -11.5406 -11.2852  -7.7288  -7.4654
    -7.2445  -7.0471  -6.8124  -6.4755  -1.5622  -1.5387  -1.4250  -1.3872
    -1.2915  -1.2160   2.6063   3.1701   4.2493   4.3278   4.3924   4.9162
     5.1632   5.4977   5.7718   6.1299   6.2478   6.4346   6.8740   6.9895
     7.6666   7.7476   7.8249   7.9763   8.1743   8.2598   8.4005   8.5453
     8.6321   8.6924   8.7340   8.7814   8.7974   9.0863   9.3860   9.9698
    10.1347  11.3341  11.4461  12.7715  13.2992  13.5589  14.7277  15.1611
    15.6756  15.7024  15.9902  16.6862

     occupation numbers 
     1.0000   1.0000   1.0000   1.0000   1.0000   1.0000   1.0000   1.0000
     1.0000   1.0000   1.0000   1.0000   1.0000   1.0000   1.0000   1.0000
     1.0000   1.0000   1.0000   1.0000   1.0000   1.0000   1.0000   1.0000
     1.0000   1.0000   1.0000   1.0000   1.0000   1.0000   1.0000   1.0000
     1.0000   1.0000   1.0000   1.0000   1.0000   1.0000   1.0000   1.0000
     1.0000   1.0000   1.0000   1.0000   1.0000   1.0000   1.0000   1.0000
     0.9925   0.0000   0.0000   0.0000   0.0000   0.0000   0.0000   0.0000
     0.0000   0.0000   0.0000   0.0000

          k = 0.4375 0.4375 0.0205 (  8851 PWs)   bands (ev):

   -30.9288 -15.8027 -15.7976 -11.7097 -11.7044 -11.2017  -7.6417  -7.6237
    -7.0301  -6.9651  -6.7405  -6.4109  -1.7286  -1.7135  -1.6730  -1.6443
    -1.3880  -1.2148   2.2180   2.8709   4.1188   4.1354   4.1923   4.9145
     5.1469   5.6259   5.6415   6.0436   6.0446   6.5983   7.0348   7.0504
     7.3048   7.9732   8.0840   8.2381   8.3428   8.5352   8.5877   8.6807
     8.7411   8.8278   8.8494   8.9197   8.9695   9.0582   9.4732  10.1757
    10.2495  11.8914  11.9661  12.6426  13.1677  13.2385  14.5556  15.4801
    15.5892  15.6552  15.7561  16.0083

     occupation numbers 
     1.0000   1.0000   1.0000   1.0000   1.0000   1.0000   1.0000   1.0000
     1.0000   1.0000   1.0000   1.0000   1.0000   1.0000   1.0000   1.0000
     1.0000   1.0000   1.0000   1.0000   1.0000   1.0000   1.0000   1.0000
     1.0000   1.0000   1.0000   1.0000   1.0000   1.0000   1.0000   1.0000
     1.0000   1.0000   1.0000   1.0000   1.0000   1.0000   1.0000   1.0000
     1.0000   1.0000   1.0000   1.0000   1.0000   1.0000   1.0000   1.0000
     0.0336   0.0000   0.0000   0.0000   0.0000   0.0000   0.0000   0.0000
     0.0000   0.0000   0.0000   0.0000

          k = 0.4375 0.4375 0.0615 (  8868 PWs)   bands (ev):

   -30.9288 -15.8033 -15.7970 -11.7097 -11.7044 -11.2017  -7.6419  -7.6237
    -7.0287  -6.9651  -6.7424  -6.4101  -1.7292  -1.7129  -1.6717  -1.6452
    -1.3771  -1.2272   2.2216   2.8655   4.1267   4.1354   4.1923   4.9075
     5.1490   5.6263   5.6413   6.0456   6.0463   6.5603   7.0211   7.0492
     7.4151   7.9837   8.0868   8.2236   8.3466   8.5378   8.5814   8.6463
     8.6811   8.8226   8.8346   8.8992   8.9975   9.0390   9.5214  10.1753
    10.2489  11.8918  11.9657  12.7139  13.1638  13.2435  14.5816  15.4663
    15.5059  15.5594  15.6339  16.2317

     occupation numbers 
     1.0000   1.0000   1.0000   1.0000   1.0000   1.0000   1.0000   1.0000
     1.0000   1.0000   1.0000   1.0000   1.0000   1.0000   1.0000   1.0000
     1.0000   1.0000   1.0000   1.0000   1.0000   1.0000   1.0000   1.0000
     1.0000   1.0000   1.0000   1.0000   1.0000   1.0000   1.0000   1.0000
     1.0000   1.0000   1.0000   1.0000   1.0000   1.0000   1.0000   1.0000
     1.0000   1.0000   1.0000   1.0000   1.0000   1.0000   1.0000   1.0000
     0.0402   0.0000   0.0000   0.0000   0.0000   0.0000   0.0000   0.0000
     0.0000   0.0000   0.0000   0.0000

          k = 0.4375 0.4375 0.1025 (  8877 PWs)   bands (ev):

   -30.9288 -15.8039 -15.7963 -11.7097 -11.7044 -11.2018  -7.6421  -7.6237
    -7.0267  -6.9651  -6.7452  -6.4091  -1.7300  -1.7121  -1.6698  -1.6465
    -1.3575  -1.2488   2.2268   2.8577   4.1354   4.1381   4.1923   4.8974
     5.1519   5.6269   5.6410   6.0475   6.0498   6.5141   7.0106   7.0476
     7.5772   8.0010   8.0908   8.2006   8.3523   8.4935   8.5414   8.5730
     8.6818   8.7953   8.8097   8.8889   9.0265   9.0421   9.5705  10.1748
    10.2479  11.8923  11.9652  12.8325  13.1430  13.2506  14.6421  15.2353
    15.2989  15.6723  15.7141  16.4020

     occupation numbers 
     1.0000   1.0000   1.0000   1.0000   1.0000   1.0000   1.0000   1.0000
     1.0000   1.0000   1.0000   1.0000   1.0000   1.0000   1.0000   1.0000
     1.0000   1.0000   1.0000   1.0000   1.0000   1.0000   1.0000   1.0000
     1.0000   1.0000   1.0000   1.0000   1.0000   1.0000   1.0000   1.0000
     1.0000   1.0000   1.0000   1.0000   1.0000   1.0000   1.0000   1.0000
     1.0000   1.0000   1.0000   1.0000   1.0000   1.0000   1.0000   1.0000
     0.0497   0.0000   0.0000   0.0000   0.0000   0.0000   0.0000   0.0000
     0.0000   0.0000   0.0000   0.0000

          k = 0.4375 0.4375 0.1435 (  8874 PWs)   bands (ev):

   -30.9288 -15.8043 -15.7959 -11.7097 -11.7044 -11.2018  -7.6423  -7.6237
    -7.0253  -6.9651  -6.7472  -6.4083  -1.7305  -1.7116  -1.6683  -1.6475
    -1.3367  -1.2711   2.2306   2.8521   4.1354   4.1464   4.1923   4.8900
     5.1540   5.6273   5.6408   6.0488   6.0525   6.4852   7.0057   7.0465
     7.7190   8.0161   8.0937   8.1816   8.3510   8.3571   8.5439   8.5664
     8.6825   8.7795   8.7878   8.8893   9.0434   9.0497   9.5977  10.1744
    10.2473  11.8927  11.9648  12.9541  13.0924  13.2557  14.7323  15.0352
    15.1819  15.7880  15.7939  16.4638

     occupation numbers 
     1.0000   1.0000   1.0000   1.0000   1.0000   1.0000   1.0000   1.0000
     1.0000   1.0000   1.0000   1.0000   1.0000   1.0000   1.0000   1.0000
     1.0000   1.0000   1.0000   1.0000   1.0000   1.0000   1.0000   1.0000
     1.0000   1.0000   1.0000   1.0000   1.0000   1.0000   1.0000   1.0000
     1.0000   1.0000   1.0000   1.0000   1.0000   1.0000   1.0000   1.0000
     1.0000   1.0000   1.0000   1.0000   1.0000   1.0000   1.0000   1.0000
     0.0565   0.0000   0.0000   0.0000   0.0000   0.0000   0.0000   0.0000
     0.0000   0.0000   0.0000   0.0000

          k = 0.1875 0.0625-0.0205 (  8831 PWs)   bands (ev):

[...]
     1.0000   1.0000   1.0000   1.0000   1.0000   1.0000   1.0000   1.0000
     1.0000   1.0587   0.9431   0.0000   0.0000   0.0000   0.0000   0.0000
     0.0000   0.0000   0.0000   0.0000

          k = 0.4375 0.0625-0.1025 (  8820 PWs)   bands (ev):

   -30.9449 -15.9092 -15.9008 -11.7717 -11.4644 -11.0571  -7.9354  -7.8270
    -7.2702  -7.0874  -6.9426  -6.6307  -1.3617  -1.2354  -1.0440  -0.9591
    -0.6679  -0.6538   3.4241   3.6108   4.9647   4.9656   4.9772   5.2111
     5.5825   5.5859   5.9887   6.0585   6.4437   6.5536   6.5729   6.7052
     6.9085   7.1949   7.2152   7.4758   7.5872   7.8504   8.0674   8.3489
     8.4644   8.4878   8.4937   8.6569   8.8968   9.0224   9.1350   9.3525
     9.6346   9.7601   9.8589  12.1417  14.2360  14.5061  14.6796  15.6423
    15.7378  15.8017  15.9395  16.3462

     occupation numbers 
     1.0000   1.0000   1.0000   1.0000   1.0000   1.0000   1.0000   1.0000
     1.0000   1.0000   1.0000   1.0000   1.0000   1.0000   1.0000   1.0000
     1.0000   1.0000   1.0000   1.0000   1.0000   1.0000   1.0000   1.0000
     1.0000   1.0000   1.0000   1.0000   1.0000   1.0000   1.0000   1.0000
     1.0000   1.0000   1.0000   1.0000   1.0000   1.0000   1.0000   1.0000
     1.0000   1.0000   1.0000   1.0000   1.0000   1.0000   1.0000   1.0000
     1.0000   1.0558   0.9575   0.0000   0.0000   0.0000   0.0000   0.0000
     0.0000   0.0000   0.0000   0.0000

          k = 0.4375 0.0625-0.1435 (  8821 PWs)   bands (ev):

   -30.9449 -15.9097 -15.9002 -11.7717 -11.4644 -11.0571  -7.9369  -7.8268
    -7.2580  -7.0877  -6.9609  -6.6230  -1.3507  -1.2470  -1.0431  -0.9602
    -0.6680  -0.6537   3.4266   3.6086   4.9640   4.9677   4.9790   5.2032
     5.5849   5.5928   6.0196   6.0546   6.4384   6.5338   6.5702   6.6932
     6.8707   7.1966   7.2178   7.5063   7.5704   7.8823   8.1015   8.3957
     8.4487   8.4736   8.4967   8.6020   8.8963   9.0318   9.1424   9.3500
     9.6221   9.7691   9.8358  12.1591  14.1797  14.5691  14.6311  15.6352
    15.7465  15.8072  15.9166  16.3385

     occupation numbers 
     1.0000   1.0000   1.0000   1.0000   1.0000   1.0000   1.0000   1.0000
     1.0000   1.0000   1.0000   1.0000   1.0000   1.0000   1.0000   1.0000
     1.0000   1.0000   1.0000   1.0000   1.0000   1.0000   1.0000   1.0000
     1.0000   1.0000   1.0000   1.0000   1.0000   1.0000   1.0000   1.0000
     1.0000   1.0000   1.0000   1.0000   1.0000   1.0000   1.0000   1.0000
     1.0000   1.0000   1.0000   1.0000   1.0000   1.0000   1.0000   1.0000
     1.0000   1.0529   0.9684   0.0000   0.0000   0.0000   0.0000   0.0000
     0.0000   0.0000   0.0000   0.0000

          k = 0.3125 0.1875-0.0205 (  8818 PWs)   bands (ev):

   -30.9450 -15.9146 -15.9094 -11.5831 -11.4850 -11.2864  -7.8158  -7.6891
    -7.2895  -7.1643  -6.8565  -6.5393  -1.3838  -1.2826  -1.2592  -1.1762
    -0.8442  -0.7780   3.4594   3.8355   4.5496   4.5912   5.0828   5.2099
     5.3214   5.3551   5.8318   6.1976   6.5248   6.6089   6.9012   6.9805
     7.1698   7.3090   7.3573   7.5815   7.9470   8.0354   8.2159   8.3004
     8.4477   8.4642   8.5163   8.5936   8.7472   8.7909   9.0305   9.7087
    10.0574  10.2026  10.4165  12.7406  13.9480  14.0536  14.3509  15.4877
    15.7087  15.7929  16.0141  16.2839

     occupation numbers 
     1.0000   1.0000   1.0000   1.0000   1.0000   1.0000   1.0000   1.0000
     1.0000   1.0000   1.0000   1.0000   1.0000   1.0000   1.0000   1.0000
     1.0000   1.0000   1.0000   1.0000   1.0000   1.0000   1.0000   1.0000
     1.0000   1.0000   1.0000   1.0000   1.0000   1.0000   1.0000   1.0000
     1.0000   1.0000   1.0000   1.0000   1.0000   1.0000   1.0000   1.0000
     1.0000   1.0000   1.0000   1.0000   1.0000   1.0000   1.0000   1.0000
     1.0000   0.5096   0.0308   0.0000   0.0000   0.0000   0.0000   0.0000
     0.0000   0.0000   0.0000   0.0000

          k = 0.3125 0.1875-0.0615 (  8825 PWs)   bands (ev):

   -30.9450 -15.9155 -15.9085 -11.5831 -11.4851 -11.2864  -7.8155  -7.6900
    -7.2896  -7.1621  -6.8583  -6.5391  -1.3817  -1.2838  -1.2558  -1.1810
    -0.8406  -0.7817   3.4634   3.8309   4.5503   4.5895   5.0834   5.1977
     5.3283   5.3635   5.8309   6.2202   6.5199   6.6034   6.8150   6.9653
     7.2725   7.3007   7.3712   7.5849   7.9239   8.0515   8.2207   8.3148
     8.4408   8.4733   8.5144   8.5881   8.7478   8.7853   8.9997   9.7053
    10.0488  10.2151  10.4101  12.7571  13.9534  14.0543  14.3421  15.4859
    15.7153  15.7810  15.9387  16.2422

     occupation numbers 
     1.0000   1.0000   1.0000   1.0000   1.0000   1.0000   1.0000   1.0000
     1.0000   1.0000   1.0000   1.0000   1.0000   1.0000   1.0000   1.0000
     1.0000   1.0000   1.0000   1.0000   1.0000   1.0000   1.0000   1.0000
     1.0000   1.0000   1.0000   1.0000   1.0000   1.0000   1.0000   1.0000
     1.0000   1.0000   1.0000   1.0000   1.0000   1.0000   1.0000   1.0000
     1.0000   1.0000   1.0000   1.0000   1.0000   1.0000   1.0000   1.0000
     1.0000   0.4840   0.0385   0.0000   0.0000   0.0000   0.0000   0.0000
     0.0000   0.0000   0.0000   0.0000

          k = 0.3125 0.1875-0.1025 (  8825 PWs)   bands (ev):

   -30.9450 -15.9164 -15.9076 -11.5831 -11.4851 -11.2864  -7.8149  -7.6913
    -7.2897  -7.1589  -6.8611  -6.5387  -1.3786  -1.2854  -1.2502  -1.1886
    -0.8344  -0.7879   3.4694   3.8243   4.5514   4.5870   5.0843   5.1827
     5.3379   5.3733   5.8297   6.2591   6.5129   6.5918   6.7194   6.9617
     7.2881   7.3778   7.3943   7.5787   7.8973   8.0731   8.2218   8.3430
     8.4411   8.4812   8.5131   8.5746   8.7437   8.7736   8.9587   9.7006
    10.0383  10.2320  10.4004  12.7812  13.9222  14.1073  14.3178  15.4780
    15.7135  15.7467  15.9291  16.2283

     occupation numbers 
     1.0000   1.0000   1.0000   1.0000   1.0000   1.0000   1.0000   1.0000
     1.0000   1.0000   1.0000   1.0000   1.0000   1.0000   1.0000   1.0000
     1.0000   1.0000   1.0000   1.0000   1.0000   1.0000   1.0000   1.0000
     1.0000   1.0000   1.0000   1.0000   1.0000   1.0000   1.0000   1.0000
     1.0000   1.0000   1.0000   1.0000   1.0000   1.0000   1.0000   1.0000
     1.0000   1.0000   1.0000   1.0000   1.0000   1.0000   1.0000   1.0000
     1.0000   0.4495   0.0502   0.0000   0.0000   0.0000   0.0000   0.0000
     0.0000   0.0000   0.0000   0.0000

          k = 0.3125 0.1875-0.1435 (  8826 PWs)   bands (ev):

   -30.9450 -15.9169 -15.9070 -11.5831 -11.4851 -11.2864  -7.8145  -7.6922
    -7.2897  -7.1566  -6.8630  -6.5385  -1.3763  -1.2866  -1.2452  -1.1950
    -0.8288  -0.7935   3.4737   3.8195   4.5523   4.5851   5.0849   5.1732
     5.3448   5.3790   5.8289   6.2953   6.5077   6.5732   6.6645   6.9607
     7.2818   7.3971   7.4738   7.5494   7.8820   8.0887   8.2201   8.3661
     8.4524   8.4875   8.5198   8.5491   8.7288   8.7672   8.9339   9.6973
    10.0318  10.2440  10.3927  12.7988  13.8904  14.1827  14.2733  15.4686
    15.6701  15.7609  15.9939  16.1246

     occupation numbers 
     1.0000   1.0000   1.0000   1.0000   1.0000   1.0000   1.0000   1.0000
     1.0000   1.0000   1.0000   1.0000   1.0000   1.0000   1.0000   1.0000
     1.0000   1.0000   1.0000   1.0000   1.0000   1.0000   1.0000   1.0000
     1.0000   1.0000   1.0000   1.0000   1.0000   1.0000   1.0000   1.0000
     1.0000   1.0000   1.0000   1.0000   1.0000   1.0000   1.0000   1.0000
     1.0000   1.0000   1.0000   1.0000   1.0000   1.0000   1.0000   1.0000
     1.0000   0.4257   0.0594   0.0000   0.0000   0.0000   0.0000   0.0000
     0.0000   0.0000   0.0000   0.0000

          k = 0.4375 0.1875-0.0205 (  8826 PWs)   bands (ev):

   -30.9402 -15.8773 -15.8723 -11.7529 -11.3934 -11.2751  -7.8489  -7.5690
    -7.2407  -7.2049  -6.8513  -6.5857  -1.3932  -1.2651  -1.2544  -1.1727
    -0.9790  -0.9377   3.1105   3.5026   4.5345   4.7499   4.8676   5.0307
     5.1941   5.2420   5.9782   6.1330   6.3825   6.5984   6.8100   6.9821
     7.1691   7.2353   7.5672   7.5889   7.7704   7.9714   8.2880   8.4460
     8.4630   8.5552   8.5820   8.8163   8.9572   9.0753   9.1288   9.7636
     9.9111  10.3348  10.6028  12.3398  13.6384  14.3018  14.6288  15.6326
    15.6881  16.2865  16.3375  16.4864

     occupation numbers 
     1.0000   1.0000   1.0000   1.0000   1.0000   1.0000   1.0000   1.0000
     1.0000   1.0000   1.0000   1.0000   1.0000   1.0000   1.0000   1.0000
     1.0000   1.0000   1.0000   1.0000   1.0000   1.0000   1.0000   1.0000
     1.0000   1.0000   1.0000   1.0000   1.0000   1.0000   1.0000   1.0000
     1.0000   1.0000   1.0000   1.0000   1.0000   1.0000   1.0000   1.0000
     1.0000   1.0000   1.0000   1.0000   1.0000   1.0000   1.0000   1.0000
     1.0000   0.2062  -0.0086   0.0000   0.0000   0.0000   0.0000   0.0000
     0.0000   0.0000   0.0000   0.0000

          k = 0.4375 0.1875-0.0615 (  8830 PWs)   bands (ev):

   -30.9402 -15.8780 -15.8715 -11.7529 -11.3934 -11.2751  -7.8502  -7.5687
    -7.2408  -7.1965  -6.8657  -6.5787  -1.3885  -1.2687  -1.2522  -1.1766
    -0.9761  -0.9406   3.1138   3.4989   4.5361   4.7443   4.8706   5.0222
     5.2039   5.2463   5.9785   6.1388   6.3863   6.5954   6.7797   6.9254
     7.1846   7.3171   7.5577   7.5966   7.7670   7.9771   8.3102   8.4467
     8.4638   8.5522   8.5827   8.8151   8.8782   9.0917   9.1446   9.7599
     9.9064  10.3403  10.5981  12.3521  13.6935  14.2671  14.5628  15.6369
    15.7323  16.2297  16.3530  16.5336

     occupation numbers 
     1.0000   1.0000   1.0000   1.0000   1.0000   1.0000   1.0000   1.0000
     1.0000   1.0000   1.0000   1.0000   1.0000   1.0000   1.0000   1.0000
     1.0000   1.0000   1.0000   1.0000   1.0000   1.0000   1.0000   1.0000
     1.0000   1.0000   1.0000   1.0000   1.0000   1.0000   1.0000   1.0000
     1.0000   1.0000   1.0000   1.0000   1.0000   1.0000   1.0000   1.0000
     1.0000   1.0000   1.0000   1.0000   1.0000   1.0000   1.0000   1.0000
     1.0000   0.2002  -0.0029   0.0000   0.0000   0.0000   0.0000   0.0000
     0.0000   0.0000   0.0000   0.0000

          k = 0.4375 0.1875-0.1025 (  8838 PWs)   bands (ev):

   -30.9402 -15.8789 -15.8707 -11.7529 -11.3934 -11.2751  -7.8519  -7.5681
    -7.2409  -7.1837  -6.8862  -6.5696  -1.3813  -1.2734  -1.2498  -1.1823
    -0.9709  -0.9457   3.1186   3.4936   4.5385   4.7365   4.8749   5.0113
     5.2166   5.2524   5.9788   6.1475   6.3926   6.5936   6.7297   6.8802
     7.2041   7.4117   7.5465   7.5961   7.7533   8.0011   8.3467   8.4487
     8.4676   8.5470   8.5843   8.7646   8.8204   9.0983   9.1637   9.7546
     9.9001  10.3482  10.5914  12.3699  13.7879  14.1999  14.4782  15.6463
    15.8207  16.1727  16.2956  16.5438

     occupation numbers 
     1.0000   1.0000   1.0000   1.0000   1.0000   1.0000   1.0000   1.0000
     1.0000   1.0000   1.0000   1.0000   1.0000   1.0000   1.0000   1.0000
     1.0000   1.0000   1.0000   1.0000   1.0000   1.0000   1.0000   1.0000
     1.0000   1.0000   1.0000   1.0000   1.0000   1.0000   1.0000   1.0000
     1.0000   1.0000   1.0000   1.0000   1.0000   1.0000   1.0000   1.0000
     1.0000   1.0000   1.0000   1.0000   1.0000   1.0000   1.0000   1.0000
     1.0000   0.1913   0.0057   0.0000   0.0000   0.0000   0.0000   0.0000
     0.0000   0.0000   0.0000   0.0000

          k = 0.4375 0.1875-0.1435 (  8833 PWs)   bands (ev):

   -30.9402 -15.8794 -15.8702 -11.7529 -11.3934 -11.2751  -7.8532  -7.5677
    -7.2410  -7.1738  -6.9011  -6.5636  -1.3758  -1.2769  -1.2483  -1.1865
    -0.9653  -0.9513   3.1221   3.4897   4.5403   4.7311   4.8781   5.0041
     5.2250   5.2566   5.9789   6.1540   6.3980   6.5970   6.6877   6.8590
     7.2173   7.4858   7.5434   7.5722   7.7397   8.0282   8.3801   8.4516
     8.4823   8.5396   8.5880   8.6706   8.8188   9.1006   9.1746   9.7510
     9.8958  10.3537  10.5866  12.3827  13.8842  14.1219  14.4232  15.6543
    15.9367  16.1353  16.1709  16.5236

     occupation numbers 
     1.0000   1.0000   1.0000   1.0000   1.0000   1.0000   1.0000   1.0000
     1.0000   1.0000   1.0000   1.0000   1.0000   1.0000   1.0000   1.0000
     1.0000   1.0000   1.0000   1.0000   1.0000   1.0000   1.0000   1.0000
     1.0000   1.0000   1.0000   1.0000   1.0000   1.0000   1.0000   1.0000
     1.0000   1.0000   1.0000   1.0000   1.0000   1.0000   1.0000   1.0000
     1.0000   1.0000   1.0000   1.0000   1.0000   1.0000   1.0000   1.0000
     1.0000   0.1847   0.0122   0.0000   0.0000   0.0000   0.0000   0.0000
     0.0000   0.0000   0.0000   0.0000

          k = 0.4375 0.3125-0.0205 (  8856 PWs)   bands (ev):

   -30.9335 -15.8339 -15.8288 -11.7264 -11.5403 -11.2851  -7.7264  -7.4654
    -7.2487  -7.0606  -6.7869  -6.4858  -1.5656  -1.5353  -1.4538  -1.3660
    -1.3026  -1.1946   2.5932   3.1888   4.2486   4.3301   4.3699   4.9381
     5.1554   5.4883   5.7731   6.1325   6.2104   6.5321   6.9211   7.0409
     7.3003   7.6812   7.8256   8.0916   8.1258   8.3943   8.4405   8.5675
     8.6068   8.6527   8.7567   8.7805   8.9958   9.1034   9.2796   9.9728
    10.1381  11.3297  11.4486  12.6475  13.0514  13.7359  14.8424  15.3869
    15.5459  16.1062  16.1456  16.3911

     occupation numbers 
     1.0000   1.0000   1.0000   1.0000   1.0000   1.0000   1.0000   1.0000
     1.0000   1.0000   1.0000   1.0000   1.0000   1.0000   1.0000   1.0000
     1.0000   1.0000   1.0000   1.0000   1.0000   1.0000   1.0000   1.0000
     1.0000   1.0000   1.0000   1.0000   1.0000   1.0000   1.0000   1.0000
     1.0000   1.0000   1.0000   1.0000   1.0000   1.0000   1.0000   1.0000
     1.0000   1.0000   1.0000   1.0000   1.0000   1.0000   1.0000   1.0000
     0.9836   0.0000   0.0000   0.0000   0.0000   0.0000   0.0000   0.0000
     0.0000   0.0000   0.0000   0.0000

          k = 0.4375 0.3125-0.0615 (  8854 PWs)   bands (ev):

   -30.9335 -15.8345 -15.8282 -11.7264 -11.5403 -11.2851  -7.7270  -7.4654
    -7.2475  -7.0568  -6.7942  -6.4826  -1.5647  -1.5363  -1.4472  -1.3705
    -1.2998  -1.2003   2.5970   3.1834   4.2488   4.3294   4.3763   4.9319
     5.1577   5.4911   5.7727   6.1316   6.2192   6.5052   6.9050   7.0130
     7.4097   7.6971   7.8281   8.0503   8.1513   8.3898   8.3966   8.5643
     8.6177   8.6631   8.7615   8.7759   8.9351   9.0811   9.3262   9.9719
    10.1371  11.3311  11.4479  12.6848  13.1026  13.7048  14.8170  15.2874
    15.5833  15.9405  16.0929  16.5527

     occupation numbers 
     1.0000   1.0000   1.0000   1.0000   1.0000   1.0000   1.0000   1.0000
     1.0000   1.0000   1.0000   1.0000   1.0000   1.0000   1.0000   1.0000
     1.0000   1.0000   1.0000   1.0000   1.0000   1.0000   1.0000   1.0000
     1.0000   1.0000   1.0000   1.0000   1.0000   1.0000   1.0000   1.0000
     1.0000   1.0000   1.0000   1.0000   1.0000   1.0000   1.0000   1.0000
     1.0000   1.0000   1.0000   1.0000   1.0000   1.0000   1.0000   1.0000
     0.9863   0.0000   0.0000   0.0000   0.0000   0.0000   0.0000   0.0000
     0.0000   0.0000   0.0000   0.0000

          k = 0.4375 0.3125-0.1025 (  8852 PWs)   bands (ev):

   -30.9335 -15.8353 -15.8274 -11.7264 -11.5403 -11.2851  -7.7280  -7.4655
    -7.2459  -7.0511  -6.8048  -6.4784  -1.5633  -1.5377  -1.4359  -1.3786
    -1.2953  -1.2091   2.6024   3.1756   4.2491   4.3285   4.3856   4.9228
     5.1610   5.4950   5.7722   6.1303   6.2344   6.4653   6.8853   6.9962
     7.5530   7.7235   7.8295   8.0073   8.1682   8.3196   8.3983   8.5543
     8.6262   8.6793   8.7610   8.7727   8.8459   9.0818   9.3657   9.9706
    10.1357  11.3330  11.4469  12.7362  13.1967  13.6401  14.7693  15.1981
    15.6371  15.7888  16.0310  16.6869

     occupation numbers 
     1.0000   1.0000   1.0000   1.0000   1.0000   1.0000   1.0000   1.0000
     1.0000   1.0000   1.0000   1.0000   1.0000   1.0000   1.0000   1.0000
     1.0000   1.0000   1.0000   1.0000   1.0000   1.0000   1.0000   1.0000
     1.0000   1.0000   1.0000   1.0000   1.0000   1.0000   1.0000   1.0000
     1.0000   1.0000   1.0000   1.0000   1.0000   1.0000   1.0000   1.0000
     1.0000   1.0000   1.0000   1.0000   1.0000   1.0000   1.0000   1.0000
     0.9900   0.0000   0.0000   0.0000   0.0000   0.0000   0.0000   0.0000
     0.0000   0.0000   0.0000   0.0000

          k = 0.4375 0.3125-0.1435 (  8857 PWs)   bands (ev):

   -30.9335 -15.8357 -15.8270 -11.7264 -11.5403 -11.2851  -7.7287  -7.4656
    -7.2447  -7.0467  -6.8125  -6.4755  -1.5622  -1.5387  -1.4250  -1.3872
    -1.2914  -1.2160   2.6062   3.1700   4.2493   4.3279   4.3923   4.9162
     5.1632   5.4977   5.7718   6.1294   6.2484   6.4346   6.8740   6.9895
     7.6666   7.7475   7.8249   7.9763   8.1744   8.2597   8.4005   8.5454
     8.6321   8.6923   8.7340   8.7816   8.7975   9.0863   9.3860   9.9698
    10.1347  11.3343  11.4462  12.7716  13.2991  13.5588  14.7274  15.1611
    15.6753  15.7023  15.9903  16.6864

     occupation numbers 
     1.0000   1.0000   1.0000   1.0000   1.0000   1.0000   1.0000   1.0000
     1.0000   1.0000   1.0000   1.0000   1.0000   1.0000   1.0000   1.0000
     1.0000   1.0000   1.0000   1.0000   1.0000   1.0000   1.0000   1.0000
     1.0000   1.0000   1.0000   1.0000   1.0000   1.0000   1.0000   1.0000
     1.0000   1.0000   1.0000   1.0000   1.0000   1.0000   1.0000   1.0000
     1.0000   1.0000   1.0000   1.0000   1.0000   1.0000   1.0000   1.0000
     0.9925   0.0000   0.0000   0.0000   0.0000   0.0000   0.0000   0.0000
     0.0000   0.0000   0.0000   0.0000

     the Fermi energy is    10.1921 ev
     (compare with:    10.3872 eV, computed in scf)

     Writing all to output data dir ./YBCO6/YBCO6.save/
 
     init_run     :      0.59s CPU      0.67s WALL (       1 calls)
     electrons    :    160.35s CPU    163.41s WALL (       1 calls)

     Called by init_run:
     wfcinit      :      0.00s CPU      0.00s WALL (       1 calls)
     wfcinit:atom :      0.05s CPU      0.05s WALL (      64 calls)
     wfcinit:wfcr :      2.62s CPU      2.67s WALL (      64 calls)
     potinit      :      0.01s CPU      0.01s WALL (       1 calls)
     hinit0       :      0.26s CPU      0.26s WALL (       1 calls)

     Called by electrons:
     c_bands      :    160.25s CPU    163.32s WALL (       1 calls)
     v_of_rho     :      0.01s CPU      0.01s WALL (       1 calls)
     v_h          :      0.00s CPU      0.00s WALL (       1 calls)
     v_xc         :      0.00s CPU      0.00s WALL (       1 calls)
     newd         :      0.28s CPU      0.36s WALL (       1 calls)

     Called by c_bands:
     init_us_2    :      0.07s CPU      0.08s WALL (      64 calls)
     init_us_2:cp :      0.07s CPU      0.08s WALL (      64 calls)
     cegterg      :    156.60s CPU    158.51s WALL (     374 calls)

     Called by sum_band:

     Called by *egterg:
     cdiaghg      :     16.84s CPU     17.02s WALL (    7268 calls)
     cegterg:over :     15.30s CPU     15.49s WALL (    7204 calls)
     cegterg:upda :      8.66s CPU      8.71s WALL (    7204 calls)
     cegterg:last :     19.67s CPU     19.72s WALL (    2835 calls)
     h_psi        :     83.33s CPU     84.71s WALL (    7642 calls)
     s_psi        :     10.69s CPU     10.76s WALL (    7642 calls)
     g_psi        :      0.64s CPU      0.64s WALL (    7204 calls)

     Called by h_psi:
     h_psi:calbec :     11.76s CPU     11.96s WALL (    7642 calls)
     vloc_psi     :     58.76s CPU     59.78s WALL (    7642 calls)
     add_vuspsi   :     11.96s CPU     12.11s WALL (    7642 calls)

     General routines
     calbec       :     11.74s CPU     11.95s WALL (    7642 calls)
     fft          :      0.01s CPU      0.01s WALL (       6 calls)
     ffts         :      0.00s CPU      0.00s WALL (       1 calls)
     fftw         :     43.43s CPU     44.17s WALL (  358172 calls)
     interpolate  :      0.00s CPU      0.00s WALL (       1 calls)
     davcio       :      0.08s CPU      1.11s WALL (     128 calls)
 
     Parallel routines
 
     PWSCF        :   2m41.17s CPU   2m45.26s WALL

 
   This run was terminated on:  21:20:16  31Dec2023            

=------------------------------------------------------------------------------=
   JOB DONE.
=------------------------------------------------------------------------------=
