
     Program PWSCF v.7.2 starts on 31Dec2023 at 21:11:34 

     This program is part of the open-source Quantum ESPRESSO suite
     for quantum simulation of materials; please cite
         "P. Giannozzi et al., J. Phys.:Condens. Matter 21 395502 (2009);
         "P. Giannozzi et al., J. Phys.:Condens. Matter 29 465901 (2017);
         "P. Giannozzi et al., J. Chem. Phys. 152 154105 (2020);
          URL http://www.quantum-espresso.org", 
     in publications or presentations arising from this work. More details at
     http://www.quantum-espresso.org/quote

     Parallel version (MPI), running on     4 processors

     MPI processes distributed on     1 nodes
     4914 MiB available memory on the printing compute node when the environment starts
 
     Waiting for input...
     Reading input from standard input

     Current dimensions of program PWSCF are:
     Max number of different atomic species (ntypx) = 10
     Max number of k-points (npk) =  40000
     Max angular momentum in pseudopotentials (lmaxx) =  4
     file Y.pz-spn-rrkjus_psl.1.0.0.UPF: wavefunction(s)  4S renormalized
     file Ba.pz-spn-rrkjus_psl.1.0.0.UPF: wavefunction(s)  5S 6S renormalized
     file Cu.pz-dn-rrkjus_psl.1.0.0.UPF: wavefunction(s)  3D renormalized
 
     R & G space division:  proc/nbgrp/npool/nimage =       4
     Subspace diagonalization in iterative solution of the eigenvalue problem:
     a serial algorithm will be used

 
     Parallelization info
     --------------------
     sticks:   dense  smooth     PW     G-vecs:    dense   smooth      PW
     Min         554     243     73                59678    17683    2797
     Max         555     244     74                59689    17698    2804
     Sum        2217     973    293               238729    70751   11199
 
     Using Slab Decomposition
 


     bravais-lattice index     =            6
     lattice parameter (alat)  =       7.1730  a.u.
     unit-cell volume          =    1125.5476 (a.u.)^3
     number of atoms/cell      =           12
     number of atomic types    =            4
     number of electrons       =       100.00
     number of Kohn-Sham states=           60
     kinetic-energy cutoff     =      60.0000  Ry
     charge density cutoff     =     540.0000  Ry
     scf convergence threshold =      1.0E-08
     mixing beta               =       0.1000
     number of iterations used =            8  plain     mixing
     Exchange-correlation= LDA
                           (   1   1   0   0   0   0   0)

     celldm(1)=   7.172959  celldm(2)=   0.000000  celldm(3)=   3.049782
     celldm(4)=   0.000000  celldm(5)=   0.000000  celldm(6)=   0.000000

     crystal axes: (cart. coord. in units of alat)
               a(1) = (   1.000000   0.000000   0.000000 )  
               a(2) = (   0.000000   1.000000   0.000000 )  
               a(3) = (   0.000000   0.000000   3.049782 )  

     reciprocal axes: (cart. coord. in units 2 pi/alat)
               b(1) = (  1.000000  0.000000  0.000000 )  
               b(2) = (  0.000000  1.000000  0.000000 )  
               b(3) = (  0.000000  0.000000  0.327892 )  


     PseudoPot. # 1 for Y  read from file:
     ~/q-e/pslibrary/pz/PSEUDOPOTENTIALS/Y.pz-spn-rrkjus_psl.1.0.0.UPF
     MD5 check sum: Not computed, couldn't open file
     Pseudo is Ultrasoft + core correction, Zval = 11.0
     Generated using 'atomic' code by A. Dal Corso  v.7.2
     Using radial grid of 1223 points,  6 beta functions with: 
                l(1) =   0
                l(2) =   0
                l(3) =   1
                l(4) =   1
                l(5) =   2
                l(6) =   2
     Q(r) pseudized with 0 coefficients 


     PseudoPot. # 2 for Ba read from file:
     ~/q-e/pslibrary/pz/PSEUDOPOTENTIALS/Ba.pz-spn-rrkjus_psl.1.0.0.UPF
     MD5 check sum: Not computed, couldn't open file
     Pseudo is Ultrasoft + core correction, Zval = 10.0
     Generated using 'atomic' code by A. Dal Corso  v.7.2
     Using radial grid of 1251 points,  7 beta functions with: 
                l(1) =   0
                l(2) =   0
                l(3) =   0
                l(4) =   1
                l(5) =   1
                l(6) =   2
                l(7) =   2
     Q(r) pseudized with 0 coefficients 


     PseudoPot. # 3 for Cu read from file:
     ~/q-e/pslibrary/pz/PSEUDOPOTENTIALS/Cu.pz-dn-rrkjus_psl.1.0.0.UPF
     MD5 check sum: Not computed, couldn't open file
     Pseudo is Ultrasoft + core correction, Zval = 11.0
     Generated using 'atomic' code by A. Dal Corso  v.7.2
     Using radial grid of 1199 points,  6 beta functions with: 
                l(1) =   0
                l(2) =   0
                l(3) =   1
                l(4) =   1
                l(5) =   2
                l(6) =   2
     Q(r) pseudized with 0 coefficients 


     PseudoPot. # 4 for O  read from file:
     ~/q-e/pslibrary/pz/PSEUDOPOTENTIALS/O.pz-n-rrkjus_psl.1.0.0.UPF
     MD5 check sum: Not computed, couldn't open file
     Pseudo is Ultrasoft + core correction, Zval =  6.0
     Generated using 'atomic' code by A. Dal Corso  v.7.2
     Using radial grid of 1095 points,  4 beta functions with: 
                l(1) =   0
                l(2) =   0
                l(3) =   1
                l(4) =   1
     Q(r) pseudized with 0 coefficients 


     atomic species   valence    mass     pseudopotential
     Y                11.00    88.90584     Y ( 1.00)
     Ba               10.00   137.32700     Ba( 1.00)
     Cu               11.00    63.54600     Cu( 1.00)
     O                 6.00    15.99900     O ( 1.00)

      8 Sym. Ops., with inversion, found


                                    s                        frac. trans.

      isym =  1     identity                                     

 cryst.   s( 1) = (     1          0          0      )
                  (     0          1          0      )
                  (     0          0          1      )

 cart.    s( 1) = (  1.0000000  0.0000000  0.0000000 )
                  (  0.0000000  1.0000000  0.0000000 )
                  (  0.0000000  0.0000000  1.0000000 )


      isym =  2     180 deg rotation - cart. axis [0,0,1]        

 cryst.   s( 2) = (    -1          0          0      )
                  (     0         -1          0      )
                  (     0          0          1      )

 cart.    s( 2) = ( -1.0000000  0.0000000  0.0000000 )
                  (  0.0000000 -1.0000000  0.0000000 )
                  (  0.0000000  0.0000000  1.0000000 )


      isym =  3     180 deg rotation - cart. axis [0,1,0]        

 cryst.   s( 3) = (    -1          0          0      )
                  (     0          1          0      )
                  (     0          0         -1      )

 cart.    s( 3) = ( -1.0000000  0.0000000  0.0000000 )
                  (  0.0000000  1.0000000  0.0000000 )
                  (  0.0000000  0.0000000 -1.0000000 )


      isym =  4     180 deg rotation - cart. axis [1,0,0]        

 cryst.   s( 4) = (     1          0          0      )
                  (     0         -1          0      )
                  (     0          0         -1      )

 cart.    s( 4) = (  1.0000000  0.0000000  0.0000000 )
                  (  0.0000000 -1.0000000  0.0000000 )
                  (  0.0000000  0.0000000 -1.0000000 )


      isym =  5     inversion                                    

 cryst.   s( 5) = (    -1          0          0      )
                  (     0         -1          0      )
                  (     0          0         -1      )

 cart.    s( 5) = ( -1.0000000  0.0000000  0.0000000 )
                  (  0.0000000 -1.0000000  0.0000000 )
                  (  0.0000000  0.0000000 -1.0000000 )


      isym =  6     inv. 180 deg rotation - cart. axis [0,0,1]   

 cryst.   s( 6) = (     1          0          0      )
                  (     0          1          0      )
                  (     0          0         -1      )

 cart.    s( 6) = (  1.0000000  0.0000000  0.0000000 )
                  (  0.0000000  1.0000000  0.0000000 )
                  (  0.0000000  0.0000000 -1.0000000 )


      isym =  7     inv. 180 deg rotation - cart. axis [0,1,0]   

 cryst.   s( 7) = (     1          0          0      )
                  (     0         -1          0      )
                  (     0          0          1      )

 cart.    s( 7) = (  1.0000000  0.0000000  0.0000000 )
                  (  0.0000000 -1.0000000  0.0000000 )
                  (  0.0000000  0.0000000  1.0000000 )


      isym =  8     inv. 180 deg rotation - cart. axis [1,0,0]   

 cryst.   s( 8) = (    -1          0          0      )
                  (     0          1          0      )
                  (     0          0          1      )

 cart.    s( 8) = ( -1.0000000  0.0000000  0.0000000 )
                  (  0.0000000  1.0000000  0.0000000 )
                  (  0.0000000  0.0000000  1.0000000 )


     point group D_2h (mmm) 
     there are  8 classes
     the character table:

       E     C2    C2'   C2''  i     s_v   s_v'  s_v''
A_g    1.00  1.00  1.00  1.00  1.00  1.00  1.00  1.00
B_1g   1.00  1.00 -1.00 -1.00  1.00  1.00 -1.00 -1.00
B_2g   1.00 -1.00  1.00 -1.00  1.00 -1.00  1.00 -1.00
B_3g   1.00 -1.00 -1.00  1.00  1.00 -1.00 -1.00  1.00
A_u    1.00  1.00  1.00  1.00 -1.00 -1.00 -1.00 -1.00
B_1u   1.00  1.00 -1.00 -1.00 -1.00 -1.00  1.00  1.00
B_2u   1.00 -1.00  1.00 -1.00 -1.00  1.00 -1.00  1.00
B_3u   1.00 -1.00 -1.00  1.00 -1.00  1.00  1.00 -1.00

     the symmetry operations in each class and the name of the first element:

     E        1
          identity                                               
     C2       2
          180 deg rotation - cart. axis [0,0,1]                  
     C2'      4
          180 deg rotation - cart. axis [1,0,0]                  
     C2''     3
          180 deg rotation - cart. axis [0,1,0]                  
     i        5
          inversion                                              
     s_v      6
          inv. 180 deg rotation - cart. axis [0,0,1]             
     s_v'     8
          inv. 180 deg rotation - cart. axis [1,0,0]             
     s_v''    7
          inv. 180 deg rotation - cart. axis [0,1,0]             

   Cartesian axes

     site n.     atom                  positions (alat units)
         1        Y      tau(   1) = (   0.5000000   0.5000000   1.5248910  )
         2        Ba     tau(   2) = (   0.5000000   0.5000000   0.5933142  )
         3        Ba     tau(   3) = (   0.5000000   0.5000000   2.4564678  )
         4        Cu     tau(   4) = (   0.0000000   0.0000000   0.0000000  )
         5        Cu     tau(   5) = (   0.0000000   0.0000000   1.1052738  )
         6        Cu     tau(   6) = (   0.0000000   0.0000000   1.9445082  )
         7        O      tau(   7) = (   0.5000000   0.0000000   1.1538851  )
         8        O      tau(   8) = (   0.5000000   0.0000000   1.8958969  )
         9        O      tau(   9) = (   0.0000000   0.5000000   1.1539576  )
        10        O      tau(  10) = (   0.0000000   0.5000000   1.8958244  )
        11        O      tau(  11) = (   0.0000000   0.0000000   0.4628128  )
        12        O      tau(  12) = (   0.0000000   0.0000000   2.5869691  )

   Crystallographic axes

     site n.     atom                  positions (cryst. coord.)
         1        Y      tau(   1) = (  0.5000000  0.5000000  0.5000000  )
         2        Ba     tau(   2) = (  0.5000000  0.5000000  0.1945431  )
         3        Ba     tau(   3) = (  0.5000000  0.5000000  0.8054569  )
         4        Cu     tau(   4) = (  0.0000000  0.0000000  0.0000000  )
         5        Cu     tau(   5) = (  0.0000000  0.0000000  0.3624108  )
         6        Cu     tau(   6) = (  0.0000000  0.0000000  0.6375892  )
         7        O      tau(   7) = (  0.5000000  0.0000000  0.3783500  )
         8        O      tau(   8) = (  0.5000000  0.0000000  0.6216500  )
         9        O      tau(   9) = (  0.0000000  0.5000000  0.3783738  )
        10        O      tau(  10) = (  0.0000000  0.5000000  0.6216262  )
        11        O      tau(  11) = (  0.0000000  0.0000000  0.1517528  )
        12        O      tau(  12) = (  0.0000000  0.0000000  0.8482472  )

     number of k points=    27  Methfessel-Paxton smearing, width (Ry)=  0.0100
                       cart. coord. in units 2pi/alat
        k(    1) = (   0.0000000   0.0000000   0.0000000), wk =   0.0312500
        k(    2) = (   0.0000000   0.0000000   0.0819731), wk =   0.0625000
        k(    3) = (   0.0000000   0.0000000  -0.1639461), wk =   0.0312500
        k(    4) = (   0.0000000   0.2500000   0.0000000), wk =   0.0625000
        k(    5) = (   0.0000000   0.2500000   0.0819731), wk =   0.1250000
        k(    6) = (   0.0000000   0.2500000  -0.1639461), wk =   0.0625000
        k(    7) = (   0.0000000  -0.5000000   0.0000000), wk =   0.0312500
        k(    8) = (   0.0000000  -0.5000000   0.0819731), wk =   0.0625000
        k(    9) = (   0.0000000  -0.5000000  -0.1639461), wk =   0.0312500
        k(   10) = (   0.2500000   0.2500000   0.0000000), wk =   0.1250000
        k(   11) = (   0.2500000   0.2500000   0.0819731), wk =   0.2500000
        k(   12) = (   0.2500000   0.2500000  -0.1639461), wk =   0.1250000
        k(   13) = (   0.2500000  -0.5000000   0.0000000), wk =   0.0625000
        k(   14) = (   0.2500000  -0.5000000   0.0819731), wk =   0.1250000
        k(   15) = (   0.2500000  -0.5000000  -0.1639461), wk =   0.0625000
        k(   16) = (  -0.5000000  -0.5000000   0.0000000), wk =   0.0312500
        k(   17) = (  -0.5000000  -0.5000000   0.0819731), wk =   0.0625000
        k(   18) = (  -0.5000000  -0.5000000  -0.1639461), wk =   0.0312500
        k(   19) = (   0.2500000   0.0000000   0.0000000), wk =   0.0625000
        k(   20) = (   0.2500000   0.0000000  -0.0819731), wk =   0.1250000
        k(   21) = (   0.2500000   0.0000000   0.1639461), wk =   0.0625000
        k(   22) = (  -0.5000000   0.0000000   0.0000000), wk =   0.0312500
        k(   23) = (  -0.5000000   0.0000000  -0.0819731), wk =   0.0625000
        k(   24) = (  -0.5000000   0.0000000   0.1639461), wk =   0.0312500
        k(   25) = (  -0.5000000   0.2500000   0.0000000), wk =   0.0625000
        k(   26) = (  -0.5000000   0.2500000  -0.0819731), wk =   0.1250000
        k(   27) = (  -0.5000000   0.2500000   0.1639461), wk =   0.0625000

                       cryst. coord.
        k(    1) = (   0.0000000   0.0000000   0.0000000), wk =   0.0312500
        k(    2) = (   0.0000000   0.0000000   0.2500000), wk =   0.0625000
        k(    3) = (   0.0000000   0.0000000  -0.5000000), wk =   0.0312500
        k(    4) = (   0.0000000   0.2500000   0.0000000), wk =   0.0625000
        k(    5) = (   0.0000000   0.2500000   0.2500000), wk =   0.1250000
        k(    6) = (   0.0000000   0.2500000  -0.5000000), wk =   0.0625000
        k(    7) = (   0.0000000  -0.5000000   0.0000000), wk =   0.0312500
        k(    8) = (   0.0000000  -0.5000000   0.2500000), wk =   0.0625000
        k(    9) = (   0.0000000  -0.5000000  -0.5000000), wk =   0.0312500
        k(   10) = (   0.2500000   0.2500000   0.0000000), wk =   0.1250000
        k(   11) = (   0.2500000   0.2500000   0.2500000), wk =   0.2500000
        k(   12) = (   0.2500000   0.2500000  -0.5000000), wk =   0.1250000
        k(   13) = (   0.2500000  -0.5000000   0.0000000), wk =   0.0625000
        k(   14) = (   0.2500000  -0.5000000   0.2500000), wk =   0.1250000
        k(   15) = (   0.2500000  -0.5000000  -0.5000000), wk =   0.0625000
        k(   16) = (  -0.5000000  -0.5000000   0.0000000), wk =   0.0312500
        k(   17) = (  -0.5000000  -0.5000000   0.2500000), wk =   0.0625000
        k(   18) = (  -0.5000000  -0.5000000  -0.5000000), wk =   0.0312500
        k(   19) = (   0.2500000   0.0000000   0.0000000), wk =   0.0625000
        k(   20) = (   0.2500000   0.0000000  -0.2500000), wk =   0.1250000
        k(   21) = (   0.2500000   0.0000000   0.5000000), wk =   0.0625000
        k(   22) = (  -0.5000000   0.0000000   0.0000000), wk =   0.0312500
        k(   23) = (  -0.5000000   0.0000000  -0.2500000), wk =   0.0625000
        k(   24) = (  -0.5000000   0.0000000   0.5000000), wk =   0.0312500
        k(   25) = (  -0.5000000   0.2500000   0.0000000), wk =   0.0625000
        k(   26) = (  -0.5000000   0.2500000  -0.2500000), wk =   0.1250000
        k(   27) = (  -0.5000000   0.2500000   0.5000000), wk =   0.0625000

     Dense  grid:   238729 G-vectors     FFT dimensions: (  54,  54, 162)

     Smooth grid:    70751 G-vectors     FFT dimensions: (  36,  36, 108)

     Dynamical RAM for                 wfc:       2.02 MB

     Dynamical RAM for     wfc (w. buffer):      56.60 MB

     Dynamical RAM for           str. fact:       3.64 MB

     Dynamical RAM for           local pot:       0.00 MB

     Dynamical RAM for          nlocal pot:       5.32 MB

     Dynamical RAM for                qrad:       9.94 MB

     Dynamical RAM for          rho,v,vnew:       5.47 MB

     Dynamical RAM for               rhoin:       1.82 MB

     Dynamical RAM for            rho*nmix:      14.57 MB

     Dynamical RAM for           G-vectors:       3.55 MB

     Dynamical RAM for          h,s,v(r/c):       0.66 MB

     Dynamical RAM for          <psi|beta>:       0.14 MB

     Dynamical RAM for                 psi:       4.04 MB

     Dynamical RAM for                hpsi:       4.04 MB

     Dynamical RAM for                spsi:       4.04 MB

     Dynamical RAM for      wfcinit/wfcrot:       5.11 MB

     Dynamical RAM for           addusdens:     192.17 MB

     Estimated static dynamical RAM per process >      95.47 MB

     Estimated max dynamical RAM per process >     302.21 MB

     Estimated total dynamical RAM >       1.18 GB

     Initial potential from superposition of free atoms

     starting charge      99.9671, renormalised to     100.0000
     Starting wfcs are   74 randomized atomic wfcs

     total cpu time spent up to now is        2.0 secs

     Self-consistent Calculation

     iteration #  1     ecut=    60.00 Ry     beta= 0.10
     Davidson diagonalization with overlap

---- Real-time Memory Report at c_bands before calling an iterative solver
           318 MiB given to the printing process from OS
             0 MiB allocation reported by mallinfo(arena+hblkhd)
          4389 MiB available memory on the node where the printing process lives
------------------
     ethr =  1.00E-02,  avg # of iterations =  4.7

     total cpu time spent up to now is        5.9 secs

     total energy              =    -771.73551204 Ry
     estimated scf accuracy    <       4.04602832 Ry

     iteration #  2     ecut=    60.00 Ry     beta= 0.10
     Davidson diagonalization with overlap

---- Real-time Memory Report at c_bands before calling an iterative solver
           410 MiB given to the printing process from OS
             0 MiB allocation reported by mallinfo(arena+hblkhd)
          4308 MiB available memory on the node where the printing process lives
------------------
     ethr =  4.05E-03,  avg # of iterations =  2.0

     total cpu time spent up to now is        9.5 secs

     total energy              =    -771.83981398 Ry
     estimated scf accuracy    <      25.96485136 Ry

     iteration #  3     ecut=    60.00 Ry     beta= 0.10
     Davidson diagonalization with overlap

---- Real-time Memory Report at c_bands before calling an iterative solver
           414 MiB given to the printing process from OS
             0 MiB allocation reported by mallinfo(arena+hblkhd)
          4308 MiB available memory on the node where the printing process lives
------------------
     ethr =  4.05E-03,  avg # of iterations =  2.1

     total cpu time spent up to now is       13.0 secs

     total energy              =    -771.25809810 Ry
     estimated scf accuracy    <     207.62458487 Ry

     iteration #  4     ecut=    60.00 Ry     beta= 0.10
     Davidson diagonalization with overlap

---- Real-time Memory Report at c_bands before calling an iterative solver
           414 MiB given to the printing process from OS
             0 MiB allocation reported by mallinfo(arena+hblkhd)
          4305 MiB available memory on the node where the printing process lives
------------------
     ethr =  4.05E-03,  avg # of iterations =  4.1

     total cpu time spent up to now is       16.9 secs

     total energy              =    -771.59693716 Ry
     estimated scf accuracy    <      14.97148688 Ry

     iteration #  5     ecut=    60.00 Ry     beta= 0.10
     Davidson diagonalization with overlap

---- Real-time Memory Report at c_bands before calling an iterative solver
           415 MiB given to the printing process from OS
             0 MiB allocation reported by mallinfo(arena+hblkhd)
          4303 MiB available memory on the node where the printing process lives
------------------
     ethr =  4.05E-03,  avg # of iterations =  2.0

     total cpu time spent up to now is       20.5 secs

     total energy              =    -771.67678035 Ry
     estimated scf accuracy    <       3.95425956 Ry

     iteration #  6     ecut=    60.00 Ry     beta= 0.10
     Davidson diagonalization with overlap

---- Real-time Memory Report at c_bands before calling an iterative solver
           415 MiB given to the printing process from OS
             0 MiB allocation reported by mallinfo(arena+hblkhd)
          4301 MiB available memory on the node where the printing process lives
------------------
     ethr =  3.95E-03,  avg # of iterations =  1.3

     total cpu time spent up to now is       24.4 secs

     total energy              =    -771.55047747 Ry
     estimated scf accuracy    <      15.42943255 Ry

     iteration #  7     ecut=    60.00 Ry     beta= 0.10
     Davidson diagonalization with overlap

---- Real-time Memory Report at c_bands before calling an iterative solver
           416 MiB given to the printing process from OS
             0 MiB allocation reported by mallinfo(arena+hblkhd)
          4418 MiB available memory on the node where the printing process lives
------------------
     ethr =  3.95E-03,  avg # of iterations =  6.3

     total cpu time spent up to now is       29.2 secs

     total energy              =    -772.20761901 Ry
     estimated scf accuracy    <     208.61550074 Ry

     iteration #  8     ecut=    60.00 Ry     beta= 0.10
     Davidson diagonalization with overlap

---- Real-time Memory Report at c_bands before calling an iterative solver
           416 MiB given to the printing process from OS
             0 MiB allocation reported by mallinfo(arena+hblkhd)
          4414 MiB available memory on the node where the printing process lives
------------------
     ethr =  3.95E-03,  avg # of iterations =  1.1

     total cpu time spent up to now is       33.1 secs

     total energy              =    -771.79257321 Ry
     estimated scf accuracy    <     192.28650245 Ry

     iteration #  9     ecut=    60.00 Ry     beta= 0.10
     Davidson diagonalization with overlap

---- Real-time Memory Report at c_bands before calling an iterative solver
           417 MiB given to the printing process from OS
             0 MiB allocation reported by mallinfo(arena+hblkhd)
          4411 MiB available memory on the node where the printing process lives
------------------
     ethr =  3.95E-03,  avg # of iterations =  2.5

     total cpu time spent up to now is       37.3 secs

     total energy              =    -771.21309805 Ry
     estimated scf accuracy    <      98.92606390 Ry

     iteration # 10     ecut=    60.00 Ry     beta= 0.10
     Davidson diagonalization with overlap

---- Real-time Memory Report at c_bands before calling an iterative solver
           418 MiB given to the printing process from OS
             0 MiB allocation reported by mallinfo(arena+hblkhd)
          4411 MiB available memory on the node where the printing process lives
------------------
     ethr =  3.95E-03,  avg # of iterations =  5.9

     total cpu time spent up to now is       42.0 secs

     total energy              =    -771.75097703 Ry
     estimated scf accuracy    <       8.79109433 Ry

     iteration # 11     ecut=    60.00 Ry     beta= 0.10
     Davidson diagonalization with overlap

---- Real-time Memory Report at c_bands before calling an iterative solver
           418 MiB given to the printing process from OS
             0 MiB allocation reported by mallinfo(arena+hblkhd)
          4411 MiB available memory on the node where the printing process lives
------------------
     ethr =  3.95E-03,  avg # of iterations =  1.3

     total cpu time spent up to now is       45.9 secs

     total energy              =    -771.84544341 Ry
     estimated scf accuracy    <       9.40902170 Ry

     iteration # 12     ecut=    60.00 Ry     beta= 0.10
     Davidson diagonalization with overlap

---- Real-time Memory Report at c_bands before calling an iterative solver
           418 MiB given to the printing process from OS
             0 MiB allocation reported by mallinfo(arena+hblkhd)
          4411 MiB available memory on the node where the printing process lives
------------------
     ethr =  3.95E-03,  avg # of iterations =  2.9

     total cpu time spent up to now is       50.2 secs

     total energy              =    -771.98610086 Ry
     estimated scf accuracy    <      37.21728008 Ry

     iteration # 13     ecut=    60.00 Ry     beta= 0.10
     Davidson diagonalization with overlap

---- Real-time Memory Report at c_bands before calling an iterative solver
           418 MiB given to the printing process from OS
             0 MiB allocation reported by mallinfo(arena+hblkhd)
          4410 MiB available memory on the node where the printing process lives
------------------
     ethr =  3.95E-03,  avg # of iterations =  2.0

     total cpu time spent up to now is       54.3 secs

     total energy              =    -771.66828611 Ry
     estimated scf accuracy    <      66.50806891 Ry

     iteration # 14     ecut=    60.00 Ry     beta= 0.10
     Davidson diagonalization with overlap

---- Real-time Memory Report at c_bands before calling an iterative solver
           418 MiB given to the printing process from OS
             0 MiB allocation reported by mallinfo(arena+hblkhd)
          4407 MiB available memory on the node where the printing process lives
------------------
     ethr =  3.95E-03,  avg # of iterations =  2.0

     total cpu time spent up to now is       58.5 secs

     total energy              =    -771.61989452 Ry
     estimated scf accuracy    <      24.64114745 Ry

     iteration # 15     ecut=    60.00 Ry     beta= 0.10
     Davidson diagonalization with overlap

---- Real-time Memory Report at c_bands before calling an iterative solver
           418 MiB given to the printing process from OS
             0 MiB allocation reported by mallinfo(arena+hblkhd)
          4408 MiB available memory on the node where the printing process lives
------------------
     ethr =  3.95E-03,  avg # of iterations =  2.4

     total cpu time spent up to now is       62.6 secs

     total energy              =    -771.70173819 Ry
     estimated scf accuracy    <       4.47606538 Ry

     iteration # 16     ecut=    60.00 Ry     beta= 0.10
     Davidson diagonalization with overlap

---- Real-time Memory Report at c_bands before calling an iterative solver
           418 MiB given to the printing process from OS
             0 MiB allocation reported by mallinfo(arena+hblkhd)
          4409 MiB available memory on the node where the printing process lives
------------------
     ethr =  3.95E-03,  avg # of iterations =  1.1

     total cpu time spent up to now is       66.5 secs

     total energy              =    -771.71020313 Ry
     estimated scf accuracy    <       4.39493826 Ry

     iteration # 17     ecut=    60.00 Ry     beta= 0.10
     Davidson diagonalization with overlap

---- Real-time Memory Report at c_bands before calling an iterative solver
           418 MiB given to the printing process from OS
             0 MiB allocation reported by mallinfo(arena+hblkhd)
          4410 MiB available memory on the node where the printing process lives
------------------
     ethr =  3.95E-03,  avg # of iterations =  1.0

     total cpu time spent up to now is       70.3 secs

     total energy              =    -771.71952243 Ry
     estimated scf accuracy    <       2.82022259 Ry

     iteration # 18     ecut=    60.00 Ry     beta= 0.10
     Davidson diagonalization with overlap

---- Real-time Memory Report at c_bands before calling an iterative solver
           418 MiB given to the printing process from OS
             0 MiB allocation reported by mallinfo(arena+hblkhd)
          4410 MiB available memory on the node where the printing process lives
------------------
     ethr =  2.82E-03,  avg # of iterations =  1.0

     total cpu time spent up to now is       74.1 secs

     total energy              =    -771.72126360 Ry
     estimated scf accuracy    <       2.57998047 Ry

     iteration # 19     ecut=    60.00 Ry     beta= 0.10
     Davidson diagonalization with overlap

---- Real-time Memory Report at c_bands before calling an iterative solver
           418 MiB given to the printing process from OS
             0 MiB allocation reported by mallinfo(arena+hblkhd)
          4410 MiB available memory on the node where the printing process lives
------------------
     ethr =  2.58E-03,  avg # of iterations =  1.0

     total cpu time spent up to now is       77.9 secs

     total energy              =    -771.69769959 Ry
     estimated scf accuracy    <       2.55243550 Ry

     iteration # 20     ecut=    60.00 Ry     beta= 0.10
     Davidson diagonalization with overlap

---- Real-time Memory Report at c_bands before calling an iterative solver
           418 MiB given to the printing process from OS
             0 MiB allocation reported by mallinfo(arena+hblkhd)
          4413 MiB available memory on the node where the printing process lives
------------------
     ethr =  2.55E-03,  avg # of iterations =  1.8

     total cpu time spent up to now is       82.0 secs

     total energy              =    -771.71337259 Ry
     estimated scf accuracy    <       0.15082032 Ry

     iteration # 21     ecut=    60.00 Ry     beta= 0.10
     Davidson diagonalization with overlap

---- Real-time Memory Report at c_bands before calling an iterative solver
           418 MiB given to the printing process from OS
             0 MiB allocation reported by mallinfo(arena+hblkhd)
          4317 MiB available memory on the node where the printing process lives
------------------
     ethr =  1.51E-04,  avg # of iterations =  6.7

     total cpu time spent up to now is       86.8 secs

     total energy              =    -771.72485052 Ry
     estimated scf accuracy    <       0.53717539 Ry

     iteration # 22     ecut=    60.00 Ry     beta= 0.10
     Davidson diagonalization with overlap

---- Real-time Memory Report at c_bands before calling an iterative solver
           418 MiB given to the printing process from OS
             0 MiB allocation reported by mallinfo(arena+hblkhd)
          4415 MiB available memory on the node where the printing process lives
------------------
     ethr =  1.51E-04,  avg # of iterations =  3.1

     total cpu time spent up to now is       91.1 secs

     total energy              =    -771.72974104 Ry
     estimated scf accuracy    <       1.48047314 Ry

     iteration # 23     ecut=    60.00 Ry     beta= 0.10
     Davidson diagonalization with overlap

---- Real-time Memory Report at c_bands before calling an iterative solver
           418 MiB given to the printing process from OS
             0 MiB allocation reported by mallinfo(arena+hblkhd)
          4416 MiB available memory on the node where the printing process lives
------------------
     ethr =  1.51E-04,  avg # of iterations =  2.7

     total cpu time spent up to now is       95.4 secs

     total energy              =    -771.71257945 Ry
     estimated scf accuracy    <       3.04346112 Ry

     iteration # 24     ecut=    60.00 Ry     beta= 0.10
     Davidson diagonalization with overlap

---- Real-time Memory Report at c_bands before calling an iterative solver
           418 MiB given to the printing process from OS
             0 MiB allocation reported by mallinfo(arena+hblkhd)
          4416 MiB available memory on the node where the printing process lives
------------------
     ethr =  1.51E-04,  avg # of iterations =  3.0

     total cpu time spent up to now is       99.6 secs

     total energy              =    -771.71752022 Ry
     estimated scf accuracy    <       0.44862422 Ry

     iteration # 25     ecut=    60.00 Ry     beta= 0.10
     Davidson diagonalization with overlap

---- Real-time Memory Report at c_bands before calling an iterative solver
           418 MiB given to the printing process from OS
             0 MiB allocation reported by mallinfo(arena+hblkhd)
          4417 MiB available memory on the node where the printing process lives
------------------
     ethr =  1.51E-04,  avg # of iterations =  1.8

     total cpu time spent up to now is      103.7 secs

     total energy              =    -771.71743842 Ry
     estimated scf accuracy    <       0.13049936 Ry

     iteration # 26     ecut=    60.00 Ry     beta= 0.10
     Davidson diagonalization with overlap

---- Real-time Memory Report at c_bands before calling an iterative solver
           418 MiB given to the printing process from OS
             0 MiB allocation reported by mallinfo(arena+hblkhd)
          4417 MiB available memory on the node where the printing process lives
------------------
     ethr =  1.30E-04,  avg # of iterations =  4.3

     total cpu time spent up to now is      108.2 secs

     total energy              =    -771.71867288 Ry
     estimated scf accuracy    <       0.26238698 Ry

     iteration # 27     ecut=    60.00 Ry     beta= 0.10
     Davidson diagonalization with overlap

---- Real-time Memory Report at c_bands before calling an iterative solver
           418 MiB given to the printing process from OS
             0 MiB allocation reported by mallinfo(arena+hblkhd)
          4414 MiB available memory on the node where the printing process lives
------------------
     ethr =  1.30E-04,  avg # of iterations =  1.8

     total cpu time spent up to now is      112.3 secs

     total energy              =    -771.71855337 Ry
     estimated scf accuracy    <       0.04341441 Ry

     iteration # 28     ecut=    60.00 Ry     beta= 0.10
     Davidson diagonalization with overlap

---- Real-time Memory Report at c_bands before calling an iterative solver
           418 MiB given to the printing process from OS
             0 MiB allocation reported by mallinfo(arena+hblkhd)
          4415 MiB available memory on the node where the printing process lives
------------------
     c_bands:  2 eigenvalues not converged
     c_bands:  2 eigenvalues not converged
     ethr =  4.34E-05,  avg # of iterations =  7.6

     total cpu time spent up to now is      117.3 secs

     total energy              =    -771.71797794 Ry
     estimated scf accuracy    <       0.35730856 Ry

     iteration # 29     ecut=    60.00 Ry     beta= 0.10
     Davidson diagonalization with overlap

---- Real-time Memory Report at c_bands before calling an iterative solver
           418 MiB given to the printing process from OS
             0 MiB allocation reported by mallinfo(arena+hblkhd)
          4416 MiB available memory on the node where the printing process lives
------------------
     ethr =  4.34E-05,  avg # of iterations =  4.1

     total cpu time spent up to now is      121.7 secs

     total energy              =    -771.71980971 Ry
     estimated scf accuracy    <       0.04004568 Ry

     iteration # 30     ecut=    60.00 Ry     beta= 0.10
     Davidson diagonalization with overlap

---- Real-time Memory Report at c_bands before calling an iterative solver
           418 MiB given to the printing process from OS
             0 MiB allocation reported by mallinfo(arena+hblkhd)
          4418 MiB available memory on the node where the printing process lives
------------------
     ethr =  4.00E-05,  avg # of iterations =  3.6

     total cpu time spent up to now is      126.0 secs

     total energy              =    -771.71890469 Ry
     estimated scf accuracy    <       0.16315021 Ry

     iteration # 31     ecut=    60.00 Ry     beta= 0.10
     Davidson diagonalization with overlap

---- Real-time Memory Report at c_bands before calling an iterative solver
           418 MiB given to the printing process from OS
             0 MiB allocation reported by mallinfo(arena+hblkhd)
          4417 MiB available memory on the node where the printing process lives
------------------
     ethr =  4.00E-05,  avg # of iterations =  2.7

     total cpu time spent up to now is      130.4 secs

     total energy              =    -771.71944405 Ry
     estimated scf accuracy    <       0.03783068 Ry

     iteration # 32     ecut=    60.00 Ry     beta= 0.10
     Davidson diagonalization with overlap

---- Real-time Memory Report at c_bands before calling an iterative solver
           418 MiB given to the printing process from OS
             0 MiB allocation reported by mallinfo(arena+hblkhd)
          4417 MiB available memory on the node where the printing process lives
------------------
     ethr =  3.78E-05,  avg # of iterations =  2.0

     total cpu time spent up to now is      134.5 secs

     total energy              =    -771.71973435 Ry
     estimated scf accuracy    <       0.01067794 Ry

     iteration # 33     ecut=    60.00 Ry     beta= 0.10
     Davidson diagonalization with overlap

---- Real-time Memory Report at c_bands before calling an iterative solver
           418 MiB given to the printing process from OS
             0 MiB allocation reported by mallinfo(arena+hblkhd)
          4414 MiB available memory on the node where the printing process lives
------------------
     c_bands:  1 eigenvalues not converged
     c_bands:  1 eigenvalues not converged
     ethr =  1.07E-05,  avg # of iterations =  7.6

     total cpu time spent up to now is      139.5 secs

     total energy              =    -771.71976579 Ry
     estimated scf accuracy    <       0.00569573 Ry

     iteration # 34     ecut=    60.00 Ry     beta= 0.10
     Davidson diagonalization with overlap

---- Real-time Memory Report at c_bands before calling an iterative solver
           420 MiB given to the printing process from OS
             0 MiB allocation reported by mallinfo(arena+hblkhd)
          4414 MiB available memory on the node where the printing process lives
------------------
     ethr =  5.70E-06,  avg # of iterations =  2.6

     total cpu time spent up to now is      143.6 secs

     total energy              =    -771.71980809 Ry
     estimated scf accuracy    <       0.00138244 Ry

     iteration # 35     ecut=    60.00 Ry     beta= 0.10
     Davidson diagonalization with overlap

---- Real-time Memory Report at c_bands before calling an iterative solver
           420 MiB given to the printing process from OS
             0 MiB allocation reported by mallinfo(arena+hblkhd)
          4414 MiB available memory on the node where the printing process lives
------------------
     c_bands:  1 eigenvalues not converged
     ethr =  1.38E-06,  avg # of iterations =  6.6

     total cpu time spent up to now is      148.4 secs

     total energy              =    -771.71977190 Ry
     estimated scf accuracy    <       0.00425911 Ry

     iteration # 36     ecut=    60.00 Ry     beta= 0.10
     Davidson diagonalization with overlap

---- Real-time Memory Report at c_bands before calling an iterative solver
           420 MiB given to the printing process from OS
             0 MiB allocation reported by mallinfo(arena+hblkhd)
          4414 MiB available memory on the node where the printing process lives
------------------
     ethr =  1.38E-06,  avg # of iterations =  2.2

     total cpu time spent up to now is      152.6 secs

     total energy              =    -771.71979655 Ry
     estimated scf accuracy    <       0.00009248 Ry

     iteration # 37     ecut=    60.00 Ry     beta= 0.10
     Davidson diagonalization with overlap

---- Real-time Memory Report at c_bands before calling an iterative solver
           420 MiB given to the printing process from OS
             0 MiB allocation reported by mallinfo(arena+hblkhd)
          4415 MiB available memory on the node where the printing process lives
------------------
     ethr =  9.25E-08,  avg # of iterations =  5.7

     total cpu time spent up to now is      157.3 secs

     total energy              =    -771.71979821 Ry
     estimated scf accuracy    <       0.00079358 Ry

     iteration # 38     ecut=    60.00 Ry     beta= 0.10
     Davidson diagonalization with overlap

---- Real-time Memory Report at c_bands before calling an iterative solver
           420 MiB given to the printing process from OS
             0 MiB allocation reported by mallinfo(arena+hblkhd)
          4287 MiB available memory on the node where the printing process lives
------------------
     ethr =  9.25E-08,  avg # of iterations =  3.6

     total cpu time spent up to now is      161.7 secs

     total energy              =    -771.71980132 Ry
     estimated scf accuracy    <       0.00002297 Ry

     iteration # 39     ecut=    60.00 Ry     beta= 0.10
     Davidson diagonalization with overlap

---- Real-time Memory Report at c_bands before calling an iterative solver
           420 MiB given to the printing process from OS
             0 MiB allocation reported by mallinfo(arena+hblkhd)
          4415 MiB available memory on the node where the printing process lives
------------------
     ethr =  2.30E-08,  avg # of iterations =  2.6

     total cpu time spent up to now is      165.9 secs

     total energy              =    -771.71980099 Ry
     estimated scf accuracy    <       0.00007073 Ry

     iteration # 40     ecut=    60.00 Ry     beta= 0.10
     Davidson diagonalization with overlap

---- Real-time Memory Report at c_bands before calling an iterative solver
           420 MiB given to the printing process from OS
             0 MiB allocation reported by mallinfo(arena+hblkhd)
          4414 MiB available memory on the node where the printing process lives
------------------
     ethr =  2.30E-08,  avg # of iterations =  5.4

     total cpu time spent up to now is      170.6 secs

     total energy              =    -771.71980187 Ry
     estimated scf accuracy    <       0.00013195 Ry

     iteration # 41     ecut=    60.00 Ry     beta= 0.10
     Davidson diagonalization with overlap

---- Real-time Memory Report at c_bands before calling an iterative solver
           420 MiB given to the printing process from OS
             0 MiB allocation reported by mallinfo(arena+hblkhd)
          4415 MiB available memory on the node where the printing process lives
------------------
     ethr =  2.30E-08,  avg # of iterations =  1.1

     total cpu time spent up to now is      174.5 secs

     total energy              =    -771.71979994 Ry
     estimated scf accuracy    <       0.00008527 Ry

     iteration # 42     ecut=    60.00 Ry     beta= 0.10
     Davidson diagonalization with overlap

---- Real-time Memory Report at c_bands before calling an iterative solver
           420 MiB given to the printing process from OS
             0 MiB allocation reported by mallinfo(arena+hblkhd)
          4415 MiB available memory on the node where the printing process lives
------------------
     ethr =  2.30E-08,  avg # of iterations =  6.0

     total cpu time spent up to now is      179.2 secs

     total energy              =    -771.71980130 Ry
     estimated scf accuracy    <       0.00072210 Ry

     iteration # 43     ecut=    60.00 Ry     beta= 0.10
     Davidson diagonalization with overlap

---- Real-time Memory Report at c_bands before calling an iterative solver
           420 MiB given to the printing process from OS
             0 MiB allocation reported by mallinfo(arena+hblkhd)
          4413 MiB available memory on the node where the printing process lives
------------------
     ethr =  2.30E-08,  avg # of iterations =  3.6

     total cpu time spent up to now is      183.6 secs

     total energy              =    -771.71980083 Ry
     estimated scf accuracy    <       0.00027852 Ry

     iteration # 44     ecut=    60.00 Ry     beta= 0.10
     Davidson diagonalization with overlap

---- Real-time Memory Report at c_bands before calling an iterative solver
           420 MiB given to the printing process from OS
             0 MiB allocation reported by mallinfo(arena+hblkhd)
          4413 MiB available memory on the node where the printing process lives
------------------
     ethr =  2.30E-08,  avg # of iterations =  3.4

     total cpu time spent up to now is      188.1 secs

     total energy              =    -771.71980137 Ry
     estimated scf accuracy    <       0.00004326 Ry

     iteration # 45     ecut=    60.00 Ry     beta= 0.10
     Davidson diagonalization with overlap

---- Real-time Memory Report at c_bands before calling an iterative solver
           420 MiB given to the printing process from OS
             0 MiB allocation reported by mallinfo(arena+hblkhd)
          4417 MiB available memory on the node where the printing process lives
------------------
     ethr =  2.30E-08,  avg # of iterations =  1.9

     total cpu time spent up to now is      192.2 secs

     total energy              =    -771.71980147 Ry
     estimated scf accuracy    <       0.00001216 Ry

     iteration # 46     ecut=    60.00 Ry     beta= 0.10
     Davidson diagonalization with overlap

---- Real-time Memory Report at c_bands before calling an iterative solver
           420 MiB given to the printing process from OS
             0 MiB allocation reported by mallinfo(arena+hblkhd)
          4417 MiB available memory on the node where the printing process lives
------------------
     ethr =  1.22E-08,  avg # of iterations =  4.7

     total cpu time spent up to now is      196.7 secs

     total energy              =    -771.71980176 Ry
     estimated scf accuracy    <       0.00002623 Ry

     iteration # 47     ecut=    60.00 Ry     beta= 0.10
     Davidson diagonalization with overlap

---- Real-time Memory Report at c_bands before calling an iterative solver
           420 MiB given to the printing process from OS
             0 MiB allocation reported by mallinfo(arena+hblkhd)
          4419 MiB available memory on the node where the printing process lives
------------------
     ethr =  1.22E-08,  avg # of iterations =  1.1

     total cpu time spent up to now is      200.6 secs

     total energy              =    -771.71980171 Ry
     estimated scf accuracy    <       0.00001149 Ry

     iteration # 48     ecut=    60.00 Ry     beta= 0.10
     Davidson diagonalization with overlap

---- Real-time Memory Report at c_bands before calling an iterative solver
           420 MiB given to the printing process from OS
             0 MiB allocation reported by mallinfo(arena+hblkhd)
          4417 MiB available memory on the node where the printing process lives
------------------
     ethr =  1.15E-08,  avg # of iterations =  1.9

     total cpu time spent up to now is      204.7 secs

     total energy              =    -771.71980179 Ry
     estimated scf accuracy    <       0.00000010 Ry

     iteration # 49     ecut=    60.00 Ry     beta= 0.10
     Davidson diagonalization with overlap

---- Real-time Memory Report at c_bands before calling an iterative solver
           420 MiB given to the printing process from OS
             0 MiB allocation reported by mallinfo(arena+hblkhd)
          4419 MiB available memory on the node where the printing process lives
------------------
     ethr =  1.00E-10,  avg # of iterations =  7.4

     total cpu time spent up to now is      209.8 secs

     total energy              =    -771.71980178 Ry
     estimated scf accuracy    <       0.00000446 Ry

     iteration # 50     ecut=    60.00 Ry     beta= 0.10
     Davidson diagonalization with overlap

---- Real-time Memory Report at c_bands before calling an iterative solver
           420 MiB given to the printing process from OS
             0 MiB allocation reported by mallinfo(arena+hblkhd)
          4417 MiB available memory on the node where the printing process lives
------------------
     ethr =  1.00E-10,  avg # of iterations =  7.1

     total cpu time spent up to now is      214.8 secs

     total energy              =    -771.71980185 Ry
     estimated scf accuracy    <       0.00000399 Ry

     iteration # 51     ecut=    60.00 Ry     beta= 0.10
     Davidson diagonalization with overlap

---- Real-time Memory Report at c_bands before calling an iterative solver
           420 MiB given to the printing process from OS
             0 MiB allocation reported by mallinfo(arena+hblkhd)
          4420 MiB available memory on the node where the printing process lives
------------------
     ethr =  1.00E-10,  avg # of iterations =  5.4

     total cpu time spent up to now is      219.5 secs

     total energy              =    -771.71980181 Ry
     estimated scf accuracy    <       0.00001180 Ry

     iteration # 52     ecut=    60.00 Ry     beta= 0.10
     Davidson diagonalization with overlap

---- Real-time Memory Report at c_bands before calling an iterative solver
           420 MiB given to the printing process from OS
             0 MiB allocation reported by mallinfo(arena+hblkhd)
          4419 MiB available memory on the node where the printing process lives
------------------
     ethr =  1.00E-10,  avg # of iterations =  5.7

     total cpu time spent up to now is      224.1 secs

     total energy              =    -771.71980181 Ry
     estimated scf accuracy    <       0.00000240 Ry

     iteration # 53     ecut=    60.00 Ry     beta= 0.10
     Davidson diagonalization with overlap

---- Real-time Memory Report at c_bands before calling an iterative solver
           420 MiB given to the printing process from OS
             0 MiB allocation reported by mallinfo(arena+hblkhd)
          4417 MiB available memory on the node where the printing process lives
------------------
     ethr =  1.00E-10,  avg # of iterations =  5.7

     total cpu time spent up to now is      228.8 secs

     total energy              =    -771.71980182 Ry
     estimated scf accuracy    <       0.00000013 Ry

     iteration # 54     ecut=    60.00 Ry     beta= 0.10
     Davidson diagonalization with overlap

---- Real-time Memory Report at c_bands before calling an iterative solver
           420 MiB given to the printing process from OS
             0 MiB allocation reported by mallinfo(arena+hblkhd)
          4418 MiB available memory on the node where the printing process lives
------------------
     ethr =  1.00E-10,  avg # of iterations =  1.0

     total cpu time spent up to now is      232.8 secs

     total energy              =    -771.71980182 Ry
     estimated scf accuracy    <       0.00000016 Ry

     iteration # 55     ecut=    60.00 Ry     beta= 0.10
     Davidson diagonalization with overlap

---- Real-time Memory Report at c_bands before calling an iterative solver
           420 MiB given to the printing process from OS
             0 MiB allocation reported by mallinfo(arena+hblkhd)
          4418 MiB available memory on the node where the printing process lives
------------------
     ethr =  1.00E-10,  avg # of iterations =  1.0

     total cpu time spent up to now is      236.7 secs

     total energy              =    -771.71980182 Ry
     estimated scf accuracy    <       0.00000022 Ry

     iteration # 56     ecut=    60.00 Ry     beta= 0.10
     Davidson diagonalization with overlap

---- Real-time Memory Report at c_bands before calling an iterative solver
           420 MiB given to the printing process from OS
             0 MiB allocation reported by mallinfo(arena+hblkhd)
          4418 MiB available memory on the node where the printing process lives
------------------
     ethr =  1.00E-10,  avg # of iterations =  1.0

     total cpu time spent up to now is      240.5 secs

     total energy              =    -771.71980182 Ry
     estimated scf accuracy    <       0.00000005 Ry

     iteration # 57     ecut=    60.00 Ry     beta= 0.10
     Davidson diagonalization with overlap

---- Real-time Memory Report at c_bands before calling an iterative solver
           420 MiB given to the printing process from OS
             0 MiB allocation reported by mallinfo(arena+hblkhd)
          4418 MiB available memory on the node where the printing process lives
------------------
     ethr =  5.50E-11,  avg # of iterations =  2.4

     total cpu time spent up to now is      244.7 secs

     total energy              =    -771.71980182 Ry
     estimated scf accuracy    <       0.00000005 Ry

     iteration # 58     ecut=    60.00 Ry     beta= 0.10
     Davidson diagonalization with overlap

---- Real-time Memory Report at c_bands before calling an iterative solver
           420 MiB given to the printing process from OS
             0 MiB allocation reported by mallinfo(arena+hblkhd)
          4341 MiB available memory on the node where the printing process lives
------------------
     ethr =  4.72E-11,  avg # of iterations =  1.0

     total cpu time spent up to now is      248.9 secs

     total energy              =    -771.71980182 Ry
     estimated scf accuracy    <       0.00000007 Ry

     iteration # 59     ecut=    60.00 Ry     beta= 0.10
     Davidson diagonalization with overlap

---- Real-time Memory Report at c_bands before calling an iterative solver
           420 MiB given to the printing process from OS
             0 MiB allocation reported by mallinfo(arena+hblkhd)
          4419 MiB available memory on the node where the printing process lives
------------------
     ethr =  4.72E-11,  avg # of iterations =  1.0

     total cpu time spent up to now is      252.8 secs

     total energy              =    -771.71980182 Ry
     estimated scf accuracy    <       0.00000002 Ry

     iteration # 60     ecut=    60.00 Ry     beta= 0.10
     Davidson diagonalization with overlap

---- Real-time Memory Report at c_bands before calling an iterative solver
           420 MiB given to the printing process from OS
             0 MiB allocation reported by mallinfo(arena+hblkhd)
          4419 MiB available memory on the node where the printing process lives
------------------
     ethr =  2.11E-11,  avg # of iterations =  1.6

     total cpu time spent up to now is      256.8 secs

     End of self-consistent calculation

          k = 0.0000 0.0000 0.0000 (  8853 PWs)   bands (ev):

   -30.9629 -16.0503 -16.0447 -11.7820 -11.0475 -11.0475  -8.7025  -7.5020
    -7.3890  -7.0834  -6.6631  -6.3088  -1.3859  -1.1634  -0.8574  -0.8574
    -0.8551  -0.8551   4.5066   4.5067   4.7414   4.9255   4.9258   5.1149
     5.8495   6.4919   7.0359   7.0359   7.0423   7.1085   7.1192   7.3208
     7.3212   7.3522   7.3668   7.3670   7.8651   7.8662   7.8705   7.9842
     8.0168   8.0170   8.2577   8.3153   8.4916   8.5786   8.5840   8.5842
     8.7099  10.1739  10.1739  12.2952  13.1520  13.3013  13.4696  14.4100
    15.0094  15.1046  16.0411  16.1616

     occupation numbers 
     1.0000   1.0000   1.0000   1.0000   1.0000   1.0000   1.0000   1.0000
     1.0000   1.0000   1.0000   1.0000   1.0000   1.0000   1.0000   1.0000
     1.0000   1.0000   1.0000   1.0000   1.0000   1.0000   1.0000   1.0000
     1.0000   1.0000   1.0000   1.0000   1.0000   1.0000   1.0000   1.0000
     1.0000   1.0000   1.0000   1.0000   1.0000   1.0000   1.0000   1.0000
     1.0000   1.0000   1.0000   1.0000   1.0000   1.0000   1.0000   1.0000
     1.0000   1.0246   1.0246  -0.0000  -0.0000  -0.0000  -0.0000  -0.0000
    -0.0000  -0.0000  -0.0000  -0.0000

          k = 0.0000 0.0000 0.0820 (  8810 PWs)   bands (ev):

   -30.9629 -16.0525 -16.0425 -11.7821 -11.0475 -11.0475  -8.7020  -7.5025
    -7.3890  -7.0834  -6.6630  -6.3090  -1.3623  -1.1888  -0.8608  -0.8608
    -0.8517  -0.8517   4.5067   4.5068   4.7681   4.9253   4.9257   5.1025
     5.8499   6.4984   7.0373   7.0374   7.0374   7.0423   7.1085   7.3179
     7.3184   7.3509   7.3675   7.3677   7.8047   7.8057   7.9040   8.0799
     8.1131   8.1135   8.2629   8.3041   8.4993   8.5472   8.5474   8.5786
     8.6319  10.1755  10.1755  12.3930  13.1825  13.2770  13.4300  14.2375
    15.0093  15.0837  15.7682  15.9791

     occupation numbers 
     1.0000   1.0000   1.0000   1.0000   1.0000   1.0000   1.0000   1.0000
     1.0000   1.0000   1.0000   1.0000   1.0000   1.0000   1.0000   1.0000
     1.0000   1.0000   1.0000   1.0000   1.0000   1.0000   1.0000   1.0000
     1.0000   1.0000   1.0000   1.0000   1.0000   1.0000   1.0000   1.0000
     1.0000   1.0000   1.0000   1.0000   1.0000   1.0000   1.0000   1.0000
     1.0000   1.0000   1.0000   1.0000   1.0000   1.0000   1.0000   1.0000
     1.0000   1.0251   1.0251  -0.0000  -0.0000  -0.0000  -0.0000  -0.0000
    -0.0000  -0.0000  -0.0000  -0.0000

          k = 0.0000 0.0000-0.1639 (  8846 PWs)   bands (ev):

   -30.9629 -16.0539 -16.0410 -11.7822 -11.0475 -11.0475  -8.7015  -7.5030
    -7.3890  -7.0834  -6.6628  -6.3093  -1.3282  -1.2247  -0.8626  -0.8626
    -0.8499  -0.8498   4.5067   4.5068   4.7982   4.9252   4.9255   5.0861
     5.8502   6.5119   6.9557   7.0389   7.0389   7.0423   7.1085   7.3149
     7.3154   7.3496   7.3681   7.3684   7.7683   7.7692   7.9329   8.1975
     8.1979   8.2084   8.2728   8.2888   8.4983   8.4985   8.5064   8.5189
     8.5786  10.1770  10.1770  12.5145  13.2175  13.2272  13.3761  14.1291
    14.9398  15.0093  15.8254  15.9206

     occupation numbers 
     1.0000   1.0000   1.0000   1.0000   1.0000   1.0000   1.0000   1.0000
     1.0000   1.0000   1.0000   1.0000   1.0000   1.0000   1.0000   1.0000
     1.0000   1.0000   1.0000   1.0000   1.0000   1.0000   1.0000   1.0000
     1.0000   1.0000   1.0000   1.0000   1.0000   1.0000   1.0000   1.0000
     1.0000   1.0000   1.0000   1.0000   1.0000   1.0000   1.0000   1.0000
     1.0000   1.0000   1.0000   1.0000   1.0000   1.0000   1.0000   1.0000
     1.0000   1.0256   1.0256  -0.0000  -0.0000  -0.0000  -0.0000  -0.0000
    -0.0000  -0.0000  -0.0000  -0.0000

          k = 0.0000 0.2500 0.0000 (  8834 PWs)   bands (ev):

   -30.9539 -15.9794 -15.9742 -11.6318 -11.4675 -11.0351  -8.2594  -7.6631
    -7.2746  -7.1344  -6.8253  -6.4964  -1.3995  -1.2221  -0.9366  -0.8640
    -0.7371  -0.7327   4.0292   4.1229   4.6942   4.9487   4.9749   5.1932
     5.7817   6.1441   6.2717   6.2804   6.6783   6.7933   6.8420   6.9885
     7.0064   7.2844   7.3884   7.6081   7.6136   7.8612   8.0059   8.0611
     8.2131   8.2553   8.4961   8.5279   8.5849   8.6601   8.7022   9.0911
     9.5302   9.8603   9.9178  12.8535  13.3502  14.3626  14.6384  14.7190
    14.8907  15.3709  16.0493  16.3453

     occupation numbers 
     1.0000   1.0000   1.0000   1.0000   1.0000   1.0000   1.0000   1.0000
     1.0000   1.0000   1.0000   1.0000   1.0000   1.0000   1.0000   1.0000
     1.0000   1.0000   1.0000   1.0000   1.0000   1.0000   1.0000   1.0000
     1.0000   1.0000   1.0000   1.0000   1.0000   1.0000   1.0000   1.0000
     1.0000   1.0000   1.0000   1.0000   1.0000   1.0000   1.0000   1.0000
     1.0000   1.0000   1.0000   1.0000   1.0000   1.0000   1.0000   1.0000
     1.0000   1.0000   1.0000  -0.0000  -0.0000  -0.0000  -0.0000  -0.0000
    -0.0000  -0.0000  -0.0000  -0.0000

          k = 0.0000 0.2500 0.0820 (  8835 PWs)   bands (ev):

   -30.9539 -15.9812 -15.9724 -11.6318 -11.4674 -11.0351  -8.2590  -7.6642
    -7.2722  -7.1353  -6.8256  -6.4970  -1.3851  -1.2374  -0.9307  -0.8701
    -0.7403  -0.7294   4.0360   4.1179   4.6939   4.9655   4.9751   5.1747
     5.7784   6.2123   6.2703   6.2823   6.5843   6.7894   6.8403   6.9615
     7.0273   7.2294   7.4047   7.5918   7.7151   7.8705   8.0215   8.0413
     8.2514   8.2777   8.5059   8.5308   8.5751   8.6416   8.6643   9.1174
     9.4863   9.8452   9.9183  12.8890  13.3695  14.3807  14.5812  14.7124
    14.8911  15.1536  16.0185  16.2502

     occupation numbers 
     1.0000   1.0000   1.0000   1.0000   1.0000   1.0000   1.0000   1.0000
     1.0000   1.0000   1.0000   1.0000   1.0000   1.0000   1.0000   1.0000
     1.0000   1.0000   1.0000   1.0000   1.0000   1.0000   1.0000   1.0000
     1.0000   1.0000   1.0000   1.0000   1.0000   1.0000   1.0000   1.0000
     1.0000   1.0000   1.0000   1.0000   1.0000   1.0000   1.0000   1.0000
     1.0000   1.0000   1.0000   1.0000   1.0000   1.0000   1.0000   1.0000
     1.0000   1.0000   1.0000  -0.0000  -0.0000  -0.0000  -0.0000  -0.0000
    -0.0000  -0.0000  -0.0000  -0.0000

          k = 0.0000 0.2500-0.1639 (  8814 PWs)   bands (ev):

   -30.9539 -15.9824 -15.9712 -11.6319 -11.4674 -11.0351  -8.2586  -7.6653
    -7.2698  -7.1363  -6.8259  -6.4975  -1.3668  -1.2565  -0.9232  -0.8777
    -0.7422  -0.7275   4.0436   4.1120   4.6936   4.9754   4.9861   5.1516
     5.7782   6.2693   6.2838   6.3512   6.4198   6.7856   6.8507   6.9113
     7.0712   7.1802   7.4241   7.5724   7.8291   7.8408   8.0271   8.0396
     8.2859   8.3200   8.5323   8.5330   8.5358   8.6192   8.6279   9.1461
     9.4386   9.8297   9.9189  12.9280  13.3870  14.4139  14.5113  14.6966
    14.8916  15.0007  15.9893  16.3383

     occupation numbers 
     1.0000   1.0000   1.0000   1.0000   1.0000   1.0000   1.0000   1.0000
     1.0000   1.0000   1.0000   1.0000   1.0000   1.0000   1.0000   1.0000
     1.0000   1.0000   1.0000   1.0000   1.0000   1.0000   1.0000   1.0000
     1.0000   1.0000   1.0000   1.0000   1.0000   1.0000   1.0000   1.0000
     1.0000   1.0000   1.0000   1.0000   1.0000   1.0000   1.0000   1.0000
     1.0000   1.0000   1.0000   1.0000   1.0000   1.0000   1.0000   1.0000
     1.0000   1.0000   1.0000  -0.0000  -0.0000  -0.0000  -0.0000  -0.0000
    -0.0000  -0.0000  -0.0000  -0.0000

          k = 0.0000-0.5000 0.0000 (  8826 PWs)   bands (ev):

   -30.9449 -15.9058 -15.9012 -11.7970 -11.4601 -11.0227  -7.9686  -7.8301
    -7.3248  -7.0573  -6.9045  -6.6769  -1.3816  -1.2027  -1.0235  -0.9305
    -0.6084  -0.6015   3.4112   3.5849   4.9204   5.0299   5.0899   5.2282
     5.6581   5.7494   5.8585   6.1177   6.2442   6.4812   6.5163   6.7694
     7.0350   7.0950   7.2203   7.2926   7.6490   7.7774   7.9529   8.3086
     8.4781   8.4869   8.5310   8.6877   8.9363   9.0186   9.1620   9.1709
     9.6429   9.7288   9.8040  11.9847  14.4420  14.6173  14.7934  15.5230
    15.6553  15.9315  15.9563  16.3259

     occupation numbers 
     1.0000   1.0000   1.0000   1.0000   1.0000   1.0000   1.0000   1.0000
     1.0000   1.0000   1.0000   1.0000   1.0000   1.0000   1.0000   1.0000
     1.0000   1.0000   1.0000   1.0000   1.0000   1.0000   1.0000   1.0000
     1.0000   1.0000   1.0000   1.0000   1.0000   1.0000   1.0000   1.0000
     1.0000   1.0000   1.0000   1.0000   1.0000   1.0000   1.0000   1.0000
     1.0000   1.0000   1.0000   1.0000   1.0000   1.0000   1.0000   1.0000
     1.0000   1.0000   1.0000  -0.0000  -0.0000  -0.0000  -0.0000  -0.0000
    -0.0000  -0.0000  -0.0000  -0.0000

          k = 0.0000-0.5000 0.0820 (  8828 PWs)   bands (ev):

   -30.9449 -15.9073 -15.8998 -11.7970 -11.4601 -11.0227  -7.9718  -7.8298
    -7.3031  -7.0577  -6.9446  -6.6553  -1.3641  -1.2214  -1.0236  -0.9305
    -0.6115  -0.5984   3.4149   3.5816   4.9215   5.0291   5.0892   5.2289
     5.6609   5.7503   5.9011   6.1141   6.2551   6.4722   6.5366   6.6581
     6.9574   7.1109   7.1776   7.3983   7.6323   7.8860   7.9607   8.3310
     8.4685   8.4978   8.5306   8.6255   8.9349   9.0310   9.1723   9.1786
     9.6148   9.7285   9.7690  12.0199  14.3200  14.6469  14.7935  15.5098
    15.6713  15.8471  16.0082  16.3230

     occupation numbers 
     1.0000   1.0000   1.0000   1.0000   1.0000   1.0000   1.0000   1.0000
     1.0000   1.0000   1.0000   1.0000   1.0000   1.0000   1.0000   1.0000
     1.0000   1.0000   1.0000   1.0000   1.0000   1.0000   1.0000   1.0000
     1.0000   1.0000   1.0000   1.0000   1.0000   1.0000   1.0000   1.0000
     1.0000   1.0000   1.0000   1.0000   1.0000   1.0000   1.0000   1.0000
     1.0000   1.0000   1.0000   1.0000   1.0000   1.0000   1.0000   1.0000
     1.0000   1.0000   1.0000  -0.0000  -0.0000  -0.0000  -0.0000  -0.0000
    -0.0000  -0.0000  -0.0000  -0.0000

          k = 0.0000-0.5000-0.1639 (  8832 PWs)   bands (ev):

   -30.9449 -15.9083 -15.8987 -11.7970 -11.4602 -11.0227  -7.9749  -7.8295
    -7.2778  -7.0580  -6.9842  -6.6378  -1.3400  -1.2468  -1.0238  -0.9305
    -0.6135  -0.5964   3.4189   3.5781   4.9226   5.0283   5.0886   5.2296
     5.6637   5.7513   5.9538   6.1101   6.2659   6.4635   6.5515   6.5643
     6.8829   7.1272   7.1573   7.4672   7.6155   7.9680   7.9898   8.3904
     8.4634   8.5041   8.5222   8.5302   8.9336   9.0427   9.1737   9.1979
     9.5839   9.7281   9.7337  12.0571  14.2030  14.6768  14.7937  15.4962
    15.6875  15.8681  15.9520  16.3201

     occupation numbers 
     1.0000   1.0000   1.0000   1.0000   1.0000   1.0000   1.0000   1.0000
     1.0000   1.0000   1.0000   1.0000   1.0000   1.0000   1.0000   1.0000
     1.0000   1.0000   1.0000   1.0000   1.0000   1.0000   1.0000   1.0000
     1.0000   1.0000   1.0000   1.0000   1.0000   1.0000   1.0000   1.0000
     1.0000   1.0000   1.0000   1.0000   1.0000   1.0000   1.0000   1.0000
     1.0000   1.0000   1.0000   1.0000   1.0000   1.0000   1.0000   1.0000
     1.0000   1.0000   1.0000  -0.0000  -0.0000  -0.0000  -0.0000  -0.0000
    -0.0000  -0.0000  -0.0000  -0.0000

          k = 0.2500 0.2500 0.0000 (  8819 PWs)   bands (ev):

   -30.9451 -15.9160 -15.9109 -11.4893 -11.4629 -11.4148  -7.8135  -7.5923
    -7.3778  -7.1361  -6.8481  -6.5146  -1.3623  -1.3423  -1.3186  -1.2136
    -0.8626  -0.7866   3.4682   3.9155   4.4765   4.4806   5.0607   5.2131
     5.2925   5.3965   5.7554   6.2476   6.5612   6.5717   6.9221   6.9662
     7.1513   7.4035   7.4543   7.5766   8.0452   8.2221   8.2534   8.3207
     8.3424   8.4980   8.5487   8.5588   8.6081   8.7118   9.0527   9.7180
    10.1445  10.3752  10.5335  12.8800  13.9538  14.1001  14.1053  15.3513
    15.6851  15.7998  16.1515  16.2725

     occupation numbers 
     1.0000   1.0000   1.0000   1.0000   1.0000   1.0000   1.0000   1.0000
     1.0000   1.0000   1.0000   1.0000   1.0000   1.0000   1.0000   1.0000
     1.0000   1.0000   1.0000   1.0000   1.0000   1.0000   1.0000   1.0000
     1.0000   1.0000   1.0000   1.0000   1.0000   1.0000   1.0000   1.0000
     1.0000   1.0000   1.0000   1.0000   1.0000   1.0000   1.0000   1.0000
     1.0000   1.0000   1.0000   1.0000   1.0000   1.0000   1.0000   1.0000
     1.0151   0.5744  -0.0313  -0.0000  -0.0000  -0.0000  -0.0000  -0.0000
    -0.0000  -0.0000  -0.0000  -0.0000

          k = 0.2500 0.2500 0.0820 (  8831 PWs)   bands (ev):

   -30.9451 -15.9174 -15.9094 -11.4893 -11.4629 -11.4148  -7.8128  -7.5938
    -7.3778  -7.1361  -6.8449  -6.5170  -1.3575  -1.3389  -1.3221  -1.2189
    -0.8543  -0.7949   3.4767   3.9042   4.4764   4.4806   5.0640   5.1944
     5.2997   5.4086   5.7551   6.2973   6.5467   6.5718   6.7369   6.9805
     7.3406   7.3428   7.5132   7.5884   8.0094   8.2019   8.2780   8.3389
     8.3557   8.4919   8.5306   8.5394   8.6394   8.7236   8.9724   9.7132
    10.1392  10.3884  10.5266  12.9244  13.8823  14.1316  14.1546  15.3551
    15.7159  15.8148  15.8197  16.2059

     occupation numbers 
     1.0000   1.0000   1.0000   1.0000   1.0000   1.0000   1.0000   1.0000
     1.0000   1.0000   1.0000   1.0000   1.0000   1.0000   1.0000   1.0000
     1.0000   1.0000   1.0000   1.0000   1.0000   1.0000   1.0000   1.0000
     1.0000   1.0000   1.0000   1.0000   1.0000   1.0000   1.0000   1.0000
     1.0000   1.0000   1.0000   1.0000   1.0000   1.0000   1.0000   1.0000
     1.0000   1.0000   1.0000   1.0000   1.0000   1.0000   1.0000   1.0000
     1.0136   0.4924  -0.0275  -0.0000  -0.0000  -0.0000  -0.0000  -0.0000
    -0.0000  -0.0000  -0.0000  -0.0000

          k = 0.2500 0.2500-0.1639 (  8814 PWs)   bands (ev):

   -30.9451 -15.9185 -15.9084 -11.4894 -11.4628 -11.4148  -7.8120  -7.5953
    -7.3778  -7.1361  -6.8418  -6.5195  -1.3524  -1.3320  -1.3290  -1.2246
    -0.8424  -0.8067   3.4856   3.8924   4.4764   4.4807   5.0672   5.1787
     5.3056   5.4191   5.7548   6.3820   6.5320   6.5719   6.5821   6.9967
     7.3013   7.5180   7.5473   7.5542   7.9748   8.1806   8.3029   8.3369
     8.4001   8.4779   8.5286   8.5295   8.6604   8.7275   8.8784   9.7086
    10.1342  10.4026  10.5184  12.9730  13.8072  14.1591  14.2162  15.3491
    15.6616  15.7555  15.8948  16.0740

     occupation numbers 
     1.0000   1.0000   1.0000   1.0000   1.0000   1.0000   1.0000   1.0000
     1.0000   1.0000   1.0000   1.0000   1.0000   1.0000   1.0000   1.0000
     1.0000   1.0000   1.0000   1.0000   1.0000   1.0000   1.0000   1.0000
     1.0000   1.0000   1.0000   1.0000   1.0000   1.0000   1.0000   1.0000
     1.0000   1.0000   1.0000   1.0000   1.0000   1.0000   1.0000   1.0000
     1.0000   1.0000   1.0000   1.0000   1.0000   1.0000   1.0000   1.0000
     1.0123   0.4047  -0.0210  -0.0000  -0.0000  -0.0000  -0.0000  -0.0000
    -0.0000  -0.0000  -0.0000  -0.0000

          k = 0.2500-0.5000 0.0000 (  8850 PWs)   bands (ev):

   -30.9362 -15.8505 -15.8457 -11.7618 -11.4112 -11.3274  -7.8120  -7.3557
    -7.3427  -7.1573  -6.8098  -6.5396  -1.4246  -1.3901  -1.3387  -1.3005
    -1.2001  -1.1358   2.8088   3.3218   4.3607   4.5215   4.5532   4.9347
     5.1643   5.3617   5.9001   6.1437   6.2955   6.5574   6.8383   7.0272
     7.2723   7.4360   7.7704   7.8481   7.8773   8.2248   8.4268   8.4623
     8.5563   8.6072   8.6795   8.8131   9.0250   9.1391   9.2000   9.9287
     9.9583  10.8910  11.0743  12.4536  13.2137  14.0376  14.8598  15.4957
    15.5224  16.2916  16.4231  16.6719

     occupation numbers 
     1.0000   1.0000   1.0000   1.0000   1.0000   1.0000   1.0000   1.0000
     1.0000   1.0000   1.0000   1.0000   1.0000   1.0000   1.0000   1.0000
     1.0000   1.0000   1.0000   1.0000   1.0000   1.0000   1.0000   1.0000
     1.0000   1.0000   1.0000   1.0000   1.0000   1.0000   1.0000   1.0000
     1.0000   1.0000   1.0000   1.0000   1.0000   1.0000   1.0000   1.0000
     1.0000   1.0000   1.0000   1.0000   1.0000   1.0000   1.0000   1.0000
     1.0000  -0.0000  -0.0000  -0.0000  -0.0000  -0.0000  -0.0000  -0.0000
    -0.0000  -0.0000  -0.0000  -0.0000

          k = 0.2500-0.5000 0.0820 (  8848 PWs)   bands (ev):

   -30.9362 -15.8517 -15.8445 -11.7618 -11.4111 -11.3274  -7.8139  -7.3555
    -7.3428  -7.1421  -6.8349  -6.5278  -1.4118  -1.3911  -1.3378  -1.3127
    -1.1938  -1.1440   2.8154   3.3131   4.3620   4.5161   4.5627   4.9251
     5.1713   5.3685   5.8998   6.1417   6.3225   6.5060   6.8269   6.9416
     7.4527   7.4644   7.7763   7.8169   7.8906   8.1824   8.4259   8.5082
     8.5579   8.5986   8.6818   8.8132   8.8536   9.1418   9.2672   9.9268
     9.9546  10.8951  11.0719  12.4799  13.3472  13.9517  14.7414  15.5028
    15.5677  16.0917  16.3333  16.8347

     occupation numbers 
     1.0000   1.0000   1.0000   1.0000   1.0000   1.0000   1.0000   1.0000
     1.0000   1.0000   1.0000   1.0000   1.0000   1.0000   1.0000   1.0000
     1.0000   1.0000   1.0000   1.0000   1.0000   1.0000   1.0000   1.0000
     1.0000   1.0000   1.0000   1.0000   1.0000   1.0000   1.0000   1.0000
     1.0000   1.0000   1.0000   1.0000   1.0000   1.0000   1.0000   1.0000
     1.0000   1.0000   1.0000   1.0000   1.0000   1.0000   1.0000   1.0000
     1.0000  -0.0000  -0.0000  -0.0000  -0.0000  -0.0000  -0.0000  -0.0000
    -0.0000  -0.0000  -0.0000  -0.0000

          k = 0.2500-0.5000-0.1639 (  8836 PWs)   bands (ev):

   -30.9362 -15.8526 -15.8436 -11.7618 -11.4111 -11.3274  -7.8157  -7.3553
    -7.3429  -7.1248  -6.8607  -6.5173  -1.3942  -1.3920  -1.3369  -1.3295
    -1.1848  -1.1548   2.8223   3.3042   4.3633   4.5106   4.5727   4.9151
     5.1783   5.3751   5.8992   6.1397   6.4005   6.4034   6.8159   6.8993
     7.4956   7.6286   7.7491   7.7887   7.8977   8.1573   8.4251   8.5548
     8.5900   8.6113   8.6416   8.6839   8.8133   9.1444   9.3006   9.9250
     9.9510  10.8991  11.0695  12.5075  13.5615  13.7842  14.6202  15.6151
    15.6246  15.9463  16.0822  16.8021

     occupation numbers 
     1.0000   1.0000   1.0000   1.0000   1.0000   1.0000   1.0000   1.0000
     1.0000   1.0000   1.0000   1.0000   1.0000   1.0000   1.0000   1.0000
     1.0000   1.0000   1.0000   1.0000   1.0000   1.0000   1.0000   1.0000
     1.0000   1.0000   1.0000   1.0000   1.0000   1.0000   1.0000   1.0000
     1.0000   1.0000   1.0000   1.0000   1.0000   1.0000   1.0000   1.0000
     1.0000   1.0000   1.0000   1.0000   1.0000   1.0000   1.0000   1.0000
     1.0000  -0.0000  -0.0000  -0.0000  -0.0000  -0.0000  -0.0000  -0.0000
    -0.0000  -0.0000  -0.0000  -0.0000

          k =-0.5000-0.5000 0.0000 (  8856 PWs)   bands (ev):

   -30.9274 -15.7938 -15.7888 -11.7268 -11.7265 -11.1773  -7.6430  -7.6429
    -6.9534  -6.9529  -6.7276  -6.3880  -1.7582  -1.7581  -1.7447  -1.7446
    -1.4067  -1.2147   2.1128   2.7760   4.0572   4.1090   4.1665   4.9108
     5.1473   5.6325   5.6326   6.0062   6.0068   6.6338   7.0564   7.0564
     7.2876   8.0811   8.1900   8.1900   8.3366   8.6069   8.6665   8.6899
     8.8793   8.8821   8.8825   8.9613   8.9831   8.9831   9.5116  10.2580
    10.2580  12.0375  12.1080  12.6555  13.1736  13.1737  14.3784  15.4519
    15.4521  15.7492  15.7579  15.8161

     occupation numbers 
     1.0000   1.0000   1.0000   1.0000   1.0000   1.0000   1.0000   1.0000
     1.0000   1.0000   1.0000   1.0000   1.0000   1.0000   1.0000   1.0000
     1.0000   1.0000   1.0000   1.0000   1.0000   1.0000   1.0000   1.0000
     1.0000   1.0000   1.0000   1.0000   1.0000   1.0000   1.0000   1.0000
     1.0000   1.0000   1.0000   1.0000   1.0000   1.0000   1.0000   1.0000
     1.0000   1.0000   1.0000   1.0000   1.0000   1.0000   1.0000   1.0191
     1.0191  -0.0000  -0.0000  -0.0000  -0.0000  -0.0000  -0.0000  -0.0000
    -0.0000  -0.0000  -0.0000  -0.0000

          k =-0.5000-0.5000 0.0820 (  8844 PWs)   bands (ev):

   -30.9274 -15.7948 -15.7878 -11.7268 -11.7265 -11.1773  -7.6431  -7.6429
    -6.9534  -6.9528  -6.7276  -6.3880  -1.7603  -1.7602  -1.7426  -1.7425
    -1.3812  -1.2422   2.1194   2.7661   4.0726   4.1091   4.1665   4.8975
     5.1512   5.6321   5.6322   6.0087   6.0092   6.5574   7.0539   7.0539
     7.4899   8.0812   8.1963   8.1964   8.3425   8.5966   8.6327   8.6665
     8.6899   8.8274   8.8278   8.9639   9.0312   9.0313   9.6027  10.2578
    10.2579  12.0375  12.1080  12.7689  13.1772  13.1774  14.4954  15.2284
    15.4845  15.5778  15.5781  16.2200

     occupation numbers 
     1.0000   1.0000   1.0000   1.0000   1.0000   1.0000   1.0000   1.0000
     1.0000   1.0000   1.0000   1.0000   1.0000   1.0000   1.0000   1.0000
     1.0000   1.0000   1.0000   1.0000   1.0000   1.0000   1.0000   1.0000
     1.0000   1.0000   1.0000   1.0000   1.0000   1.0000   1.0000   1.0000
     1.0000   1.0000   1.0000   1.0000   1.0000   1.0000   1.0000   1.0000
     1.0000   1.0000   1.0000   1.0000   1.0000   1.0000   1.0000   1.0193
     1.0192  -0.0000  -0.0000  -0.0000  -0.0000  -0.0000  -0.0000  -0.0000
    -0.0000  -0.0000  -0.0000  -0.0000

          k =-0.5000-0.5000-0.1639 (  8880 PWs)   bands (ev):

   -30.9274 -15.7956 -15.7871 -11.7268 -11.7265 -11.1774  -7.6431  -7.6429
    -6.9534  -6.9528  -6.7276  -6.3881  -1.7620  -1.7619  -1.7410  -1.7409
    -1.3342  -1.2914   2.1262   2.7560   4.0885   4.1090   4.1665   4.8838
     5.1551   5.6317   5.6318   6.0110   6.0116   6.5000   7.0513   7.0513
     7.7522   8.0811   8.2030   8.2030   8.3383   8.3489   8.5860   8.6664
     8.6899   8.7903   8.7908   8.9664   9.0614   9.0615   9.6630  10.2576
    10.2576  12.0375  12.1079  12.8943  13.1809  13.1810  14.7102  14.9693
    15.1100  15.8039  15.8044  16.2968

     occupation numbers 
     1.0000   1.0000   1.0000   1.0000   1.0000   1.0000   1.0000   1.0000
     1.0000   1.0000   1.0000   1.0000   1.0000   1.0000   1.0000   1.0000
     1.0000   1.0000   1.0000   1.0000   1.0000   1.0000   1.0000   1.0000
     1.0000   1.0000   1.0000   1.0000   1.0000   1.0000   1.0000   1.0000
     1.0000   1.0000   1.0000   1.0000   1.0000   1.0000   1.0000   1.0000
     1.0000   1.0000   1.0000   1.0000   1.0000   1.0000   1.0000   1.0195
     1.0195  -0.0000  -0.0000  -0.0000  -0.0000  -0.0000  -0.0000  -0.0000
    -0.0000  -0.0000  -0.0000  -0.0000

          k = 0.2500 0.0000 0.0000 (  8834 PWs)   bands (ev):

   -30.9539 -15.9794 -15.9742 -11.6317 -11.4677 -11.0352  -8.2592  -7.6628
    -7.2744  -7.1347  -6.8253  -6.4965  -1.3994  -1.2221  -0.9366  -0.8640
    -0.7371  -0.7327   4.0292   4.1228   4.6943   4.9487   4.9745   5.1933
     5.7813   6.1439   6.2716   6.2801   6.6785   6.7933   6.8416   6.9882
     7.0061   7.2842   7.3888   7.6084   7.6139   7.8614   8.0061   8.0611
     8.2135   8.2553   8.4964   8.5279   8.5849   8.6603   8.7027   9.0912
     9.5301   9.8603   9.9178  12.8535  13.3501  14.3626  14.6386  14.7192
    14.8911  15.3703  16.0494  16.3948

     occupation numbers 
     1.0000   1.0000   1.0000   1.0000   1.0000   1.0000   1.0000   1.0000
     1.0000   1.0000   1.0000   1.0000   1.0000   1.0000   1.0000   1.0000
     1.0000   1.0000   1.0000   1.0000   1.0000   1.0000   1.0000   1.0000
     1.0000   1.0000   1.0000   1.0000   1.0000   1.0000   1.0000   1.0000
     1.0000   1.0000   1.0000   1.0000   1.0000   1.0000   1.0000   1.0000
     1.0000   1.0000   1.0000   1.0000   1.0000   1.0000   1.0000   1.0000
     1.0000   1.0000   1.0000  -0.0000  -0.0000  -0.0000  -0.0000  -0.0000
    -0.0000  -0.0000  -0.0000  -0.0000

          k = 0.2500 0.0000-0.0820 (  8835 PWs)   bands (ev):

   -30.9539 -15.9812 -15.9724 -11.6318 -11.4677 -11.0352  -8.2588  -7.6639
    -7.2720  -7.1357  -6.8256  -6.4970  -1.3850  -1.2373  -0.9307  -0.8701
    -0.7403  -0.7294   4.0360   4.1178   4.6940   4.9655   4.9747   5.1747
     5.7781   6.2122   6.2701   6.2822   6.5844   6.7894   6.8399   6.9614
     7.0270   7.2292   7.4050   7.5922   7.7153   7.8706   8.0217   8.0413
     8.2519   8.2779   8.5061   8.5308   8.5752   8.6417   8.6646   9.1174
     9.4863   9.8452   9.9183  12.8890  13.3694  14.3807  14.5814  14.7126
    14.8915  15.1532  16.0183  16.2525

     occupation numbers 
     1.0000   1.0000   1.0000   1.0000   1.0000   1.0000   1.0000   1.0000
     1.0000   1.0000   1.0000   1.0000   1.0000   1.0000   1.0000   1.0000
     1.0000   1.0000   1.0000   1.0000   1.0000   1.0000   1.0000   1.0000
     1.0000   1.0000   1.0000   1.0000   1.0000   1.0000   1.0000   1.0000
     1.0000   1.0000   1.0000   1.0000   1.0000   1.0000   1.0000   1.0000
     1.0000   1.0000   1.0000   1.0000   1.0000   1.0000   1.0000   1.0000
     1.0000   1.0000   1.0000  -0.0000  -0.0000  -0.0000  -0.0000  -0.0000
    -0.0000  -0.0000  -0.0000  -0.0000

          k = 0.2500 0.0000 0.1639 (  8814 PWs)   bands (ev):

   -30.9539 -15.9824 -15.9712 -11.6318 -11.4677 -11.0351  -8.2584  -7.6650
    -7.2695  -7.1366  -6.8259  -6.4976  -1.3668  -1.2565  -0.9233  -0.8777
    -0.7422  -0.7275   4.0436   4.1119   4.6937   4.9750   4.9861   5.1517
     5.7779   6.2690   6.2837   6.3511   6.4198   6.7856   6.8501   6.9114
     7.0709   7.1802   7.4244   7.5728   7.8291   7.8412   8.0271   8.0397
     8.2864   8.3202   8.5325   8.5332   8.5358   8.6192   8.6279   9.1462
     9.4386   9.8297   9.9189  12.9280  13.3869  14.4139  14.5115  14.6969
    14.8920  15.0003  15.9890  16.3383

     occupation numbers 
     1.0000   1.0000   1.0000   1.0000   1.0000   1.0000   1.0000   1.0000
     1.0000   1.0000   1.0000   1.0000   1.0000   1.0000   1.0000   1.0000
     1.0000   1.0000   1.0000   1.0000   1.0000   1.0000   1.0000   1.0000
     1.0000   1.0000   1.0000   1.0000   1.0000   1.0000   1.0000   1.0000
     1.0000   1.0000   1.0000   1.0000   1.0000   1.0000   1.0000   1.0000
     1.0000   1.0000   1.0000   1.0000   1.0000   1.0000   1.0000   1.0000
     1.0000   1.0000   1.0000  -0.0000  -0.0000  -0.0000  -0.0000  -0.0000
    -0.0000  -0.0000  -0.0000  -0.0000

          k =-0.5000 0.0000 0.0000 (  8826 PWs)   bands (ev):

   -30.9449 -15.9058 -15.9013 -11.7974 -11.4600 -11.0227  -7.9684  -7.8300
    -7.3243  -7.0577  -6.9045  -6.6770  -1.3815  -1.2025  -1.0236  -0.9306
    -0.6084  -0.6015   3.4110   3.5846   4.9204   5.0301   5.0893   5.2283
     5.6580   5.7492   5.8582   6.1171   6.2439   6.4812   6.5165   6.7692
     7.0347   7.0952   7.2205   7.2927   7.6494   7.7775   7.9532   8.3086
     8.4785   8.4869   8.5315   8.6882   8.9363   9.0187   9.1620   9.1712
     9.6430   9.7288   9.8043  11.9846  14.4413  14.6173  14.7941  15.5222
    15.6551  15.9317  15.9565  16.3259

     occupation numbers 
     1.0000   1.0000   1.0000   1.0000   1.0000   1.0000   1.0000   1.0000
     1.0000   1.0000   1.0000   1.0000   1.0000   1.0000   1.0000   1.0000
     1.0000   1.0000   1.0000   1.0000   1.0000   1.0000   1.0000   1.0000
     1.0000   1.0000   1.0000   1.0000   1.0000   1.0000   1.0000   1.0000
     1.0000   1.0000   1.0000   1.0000   1.0000   1.0000   1.0000   1.0000
     1.0000   1.0000   1.0000   1.0000   1.0000   1.0000   1.0000   1.0000
     1.0000   1.0000   1.0000  -0.0000  -0.0000  -0.0000  -0.0000  -0.0000
    -0.0000  -0.0000  -0.0000  -0.0000

          k =-0.5000 0.0000-0.0820 (  8828 PWs)   bands (ev):

   -30.9449 -15.9073 -15.8998 -11.7974 -11.4600 -11.0227  -7.9716  -7.8297
    -7.3025  -7.0580  -6.9446  -6.6553  -1.3640  -1.2213  -1.0237  -0.9306
    -0.6115  -0.5984   3.4147   3.5812   4.9216   5.0293   5.0887   5.2289
     5.6608   5.7501   5.9008   6.1135   6.2547   6.4722   6.5367   6.6581
     6.9572   7.1111   7.1777   7.3984   7.6328   7.8862   7.9610   8.3311
     8.4687   8.4979   8.5311   8.6258   8.9350   9.0312   9.1726   9.1786
     9.6149   9.7285   9.7693  12.0198  14.3193  14.6469  14.7942  15.5090
    15.6710  15.8472  16.0083  16.3230

     occupation numbers 
     1.0000   1.0000   1.0000   1.0000   1.0000   1.0000   1.0000   1.0000
     1.0000   1.0000   1.0000   1.0000   1.0000   1.0000   1.0000   1.0000
     1.0000   1.0000   1.0000   1.0000   1.0000   1.0000   1.0000   1.0000
     1.0000   1.0000   1.0000   1.0000   1.0000   1.0000   1.0000   1.0000
     1.0000   1.0000   1.0000   1.0000   1.0000   1.0000   1.0000   1.0000
     1.0000   1.0000   1.0000   1.0000   1.0000   1.0000   1.0000   1.0000
     1.0000   1.0000   1.0000  -0.0000  -0.0000  -0.0000  -0.0000  -0.0000
    -0.0000  -0.0000  -0.0000  -0.0000

          k =-0.5000 0.0000 0.1639 (  8832 PWs)   bands (ev):

   -30.9449 -15.9083 -15.8987 -11.7974 -11.4601 -11.0227  -7.9747  -7.8294
    -7.2772  -7.0583  -6.9842  -6.6378  -1.3399  -1.2466  -1.0238  -0.9306
    -0.6135  -0.5963   3.4187   3.5777   4.9226   5.0285   5.0881   5.2296
     5.6636   5.7511   5.9534   6.1095   6.2655   6.4635   6.5516   6.5644
     6.8829   7.1273   7.1573   7.4673   7.6161   7.9683   7.9899   8.3906
     8.4636   8.5042   8.5225   8.5306   8.9336   9.0428   9.1740   9.1979
     9.5840   9.7281   9.7340  12.0570  14.2022  14.6768  14.7944  15.4955
    15.6872  15.8684  15.9520  16.3201

     occupation numbers 
     1.0000   1.0000   1.0000   1.0000   1.0000   1.0000   1.0000   1.0000
     1.0000   1.0000   1.0000   1.0000   1.0000   1.0000   1.0000   1.0000
     1.0000   1.0000   1.0000   1.0000   1.0000   1.0000   1.0000   1.0000
     1.0000   1.0000   1.0000   1.0000   1.0000   1.0000   1.0000   1.0000
     1.0000   1.0000   1.0000   1.0000   1.0000   1.0000   1.0000   1.0000
     1.0000   1.0000   1.0000   1.0000   1.0000   1.0000   1.0000   1.0000
     1.0000   1.0000   1.0000  -0.0000  -0.0000  -0.0000  -0.0000  -0.0000
    -0.0000  -0.0000  -0.0000  -0.0000

          k =-0.5000 0.2500 0.0000 (  8850 PWs)   bands (ev):

   -30.9362 -15.8505 -15.8457 -11.7621 -11.4109 -11.3273  -7.8118  -7.3559
    -7.3429  -7.1568  -6.8097  -6.5396  -1.4246  -1.3902  -1.3387  -1.3005
    -1.2000  -1.1357   2.8086   3.3215   4.3605   4.5216   4.5530   4.9348
     5.1643   5.3618   5.9001   6.1432   6.2959   6.5576   6.8384   7.0271
     7.2723   7.4357   7.7704   7.8481   7.8775   8.2245   8.4268   8.4621
     8.5563   8.6075   8.6797   8.8133   9.0252   9.1391   9.2000   9.9287
     9.9583  10.8913  11.0745  12.4536  13.2135  14.0375  14.8592  15.4956
    15.5222  16.2916  16.4237  16.6720

     occupation numbers 
     1.0000   1.0000   1.0000   1.0000   1.0000   1.0000   1.0000   1.0000
     1.0000   1.0000   1.0000   1.0000   1.0000   1.0000   1.0000   1.0000
     1.0000   1.0000   1.0000   1.0000   1.0000   1.0000   1.0000   1.0000
     1.0000   1.0000   1.0000   1.0000   1.0000   1.0000   1.0000   1.0000
     1.0000   1.0000   1.0000   1.0000   1.0000   1.0000   1.0000   1.0000
     1.0000   1.0000   1.0000   1.0000   1.0000   1.0000   1.0000   1.0000
     1.0000  -0.0000  -0.0000  -0.0000  -0.0000  -0.0000  -0.0000  -0.0000
    -0.0000  -0.0000  -0.0000  -0.0000

          k =-0.5000 0.2500-0.0820 (  8848 PWs)   bands (ev):

   -30.9362 -15.8517 -15.8445 -11.7621 -11.4109 -11.3273  -7.8137  -7.3557
    -7.3430  -7.1415  -6.8349  -6.5278  -1.4117  -1.3912  -1.3379  -1.3127
    -1.1937  -1.1439   2.8153   3.3128   4.3618   4.5162   4.5625   4.9251
     5.1713   5.3686   5.8997   6.1412   6.3229   6.5062   6.8269   6.9416
     7.4527   7.4641   7.7763   7.8170   7.8908   8.1821   8.4259   8.5081
     8.5579   8.5989   8.6819   8.8134   8.8536   9.1418   9.2673   9.9269
     9.9545  10.8954  11.0721  12.4799  13.3471  13.9516  14.7409  15.5028
    15.5675  16.0917  16.3335  16.8354

     occupation numbers 
     1.0000   1.0000   1.0000   1.0000   1.0000   1.0000   1.0000   1.0000
     1.0000   1.0000   1.0000   1.0000   1.0000   1.0000   1.0000   1.0000
     1.0000   1.0000   1.0000   1.0000   1.0000   1.0000   1.0000   1.0000
     1.0000   1.0000   1.0000   1.0000   1.0000   1.0000   1.0000   1.0000
     1.0000   1.0000   1.0000   1.0000   1.0000   1.0000   1.0000   1.0000
     1.0000   1.0000   1.0000   1.0000   1.0000   1.0000   1.0000   1.0000
     1.0000  -0.0000  -0.0000  -0.0000  -0.0000  -0.0000  -0.0000  -0.0000
    -0.0000  -0.0000  -0.0000  -0.0000

          k =-0.5000 0.2500 0.1639 (  8836 PWs)   bands (ev):

   -30.9362 -15.8526 -15.8436 -11.7621 -11.4109 -11.3274  -7.8156  -7.3556
    -7.3432  -7.1243  -6.8607  -6.5173  -1.3942  -1.3921  -1.3370  -1.3295
    -1.1847  -1.1547   2.8222   3.3039   4.3632   4.5107   4.5725   4.9151
     5.1783   5.3752   5.8992   6.1392   6.4004   6.4040   6.8159   6.8993
     7.4953   7.6285   7.7491   7.7887   7.8978   8.1571   8.4251   8.5548
     8.5903   8.6114   8.6415   8.6841   8.8135   9.1444   9.3006   9.9250
     9.9510  10.8994  11.0697  12.5076  13.5614  13.7842  14.6197  15.6151
    15.6243  15.9464  16.0821  16.8022

     occupation numbers 
     1.0000   1.0000   1.0000   1.0000   1.0000   1.0000   1.0000   1.0000
     1.0000   1.0000   1.0000   1.0000   1.0000   1.0000   1.0000   1.0000
     1.0000   1.0000   1.0000   1.0000   1.0000   1.0000   1.0000   1.0000
     1.0000   1.0000   1.0000   1.0000   1.0000   1.0000   1.0000   1.0000
     1.0000   1.0000   1.0000   1.0000   1.0000   1.0000   1.0000   1.0000
     1.0000   1.0000   1.0000   1.0000   1.0000   1.0000   1.0000   1.0000
     1.0000  -0.0000  -0.0000  -0.0000  -0.0000  -0.0000  -0.0000  -0.0000
    -0.0000  -0.0000  -0.0000  -0.0000

     the Fermi energy is    10.3872 ev

!    total energy              =    -771.71980182 Ry
     estimated scf accuracy    <          1.4E-09 Ry
     smearing contrib. (-TS)   =      -0.00004572 Ry
     internal energy E=F+TS    =    -771.71975610 Ry

     The total energy is F=E-TS. E is the sum of the following terms:
     one-electron contribution =    -358.57899793 Ry
     hartree contribution      =     269.96987340 Ry
     xc contribution           =    -234.62980213 Ry
     ewald contribution        =    -448.48082944 Ry

     convergence has been achieved in  60 iterations

     Writing all to output data dir ./YBCO6/YBCO6.save/
 
     init_run     :      1.63s CPU      1.85s WALL (       1 calls)
     electrons    :    240.61s CPU    254.82s WALL (       1 calls)

     Called by init_run:
     wfcinit      :      1.13s CPU      1.18s WALL (       1 calls)
     wfcinit:atom :      0.02s CPU      0.02s WALL (      27 calls)
     wfcinit:wfcr :      1.01s CPU      1.05s WALL (      27 calls)
     potinit      :      0.00s CPU      0.01s WALL (       1 calls)
     hinit0       :      0.25s CPU      0.26s WALL (       1 calls)

     Called by electrons:
     c_bands      :    173.49s CPU    175.87s WALL (      60 calls)
     sum_band     :     49.28s CPU     55.98s WALL (      60 calls)
     v_of_rho     :      0.24s CPU      0.25s WALL (      61 calls)
     v_h          :      0.12s CPU      0.13s WALL (      61 calls)
     v_xc         :      0.11s CPU      0.12s WALL (      61 calls)
     newd         :     17.31s CPU     22.54s WALL (      61 calls)
     mix_rho      :      0.30s CPU      0.33s WALL (      60 calls)

     Called by c_bands:
     init_us_2    :      3.56s CPU      3.61s WALL (    3267 calls)
     init_us_2:cp :      3.55s CPU      3.61s WALL (    3267 calls)
     cegterg      :    154.40s CPU    156.59s WALL (    1620 calls)

     Called by sum_band:
     sum_band:wei :      0.06s CPU      0.06s WALL (      60 calls)
     sum_band:loo :     27.62s CPU     28.15s WALL (      60 calls)
     sum_band:buf :      0.66s CPU      0.67s WALL (    1620 calls)
     sum_band:ini :      1.57s CPU      1.59s WALL (    1620 calls)
     sum_band:cal :      5.48s CPU      5.59s WALL (    1620 calls)
     sum_band:bec :      0.07s CPU      0.07s WALL (    1620 calls)
     addusdens    :     21.19s CPU     27.18s WALL (      60 calls)
                                        0.00s GPU  (      60 calls)
     addusd:skk   :      0.12s CPU      0.13s WALL (     240 calls)
                                        0.00s GPU  (     240 calls)

     Called by *egterg:
     cdiaghg      :     11.95s CPU     12.09s WALL (    6802 calls)
     cegterg:over :     10.83s CPU     11.00s WALL (    5182 calls)
     cegterg:upda :      5.76s CPU      5.80s WALL (    5182 calls)
     cegterg:last :     12.19s CPU     12.23s WALL (    2838 calls)
     h_psi        :     94.62s CPU     96.27s WALL (    6829 calls)
     s_psi        :     11.76s CPU     11.82s WALL (    6829 calls)
     g_psi        :      0.45s CPU      0.45s WALL (    5182 calls)

     Called by h_psi:
     h_psi:calbec :     13.11s CPU     13.29s WALL (    6829 calls)
     vloc_psi     :     67.50s CPU     68.82s WALL (    6829 calls)
     add_vuspsi   :     12.88s CPU     13.02s WALL (    6829 calls)

     General routines
     calbec       :     18.57s CPU     18.86s WALL (    8449 calls)
     fft          :      0.33s CPU      0.37s WALL (     364 calls)
     ffts         :      0.03s CPU      0.03s WALL (     121 calls)
     fftw         :     63.46s CPU     64.69s WALL (  506468 calls)
     interpolate  :      0.10s CPU      0.10s WALL (      61 calls)
 
     Parallel routines
 
     PWSCF        :   4m 2.44s CPU   4m17.00s WALL

 
   This run was terminated on:  21:15:51  31Dec2023            

=------------------------------------------------------------------------------=
   JOB DONE.
=------------------------------------------------------------------------------=
