
     Program PWSCF v.7.2 starts on 31Dec2023 at 18:40:30 

     This program is part of the open-source Quantum ESPRESSO suite
     for quantum simulation of materials; please cite
         "P. Giannozzi et al., J. Phys.:Condens. Matter 21 395502 (2009);
         "P. Giannozzi et al., J. Phys.:Condens. Matter 29 465901 (2017);
         "P. Giannozzi et al., J. Chem. Phys. 152 154105 (2020);
          URL http://www.quantum-espresso.org", 
     in publications or presentations arising from this work. More details at
     http://www.quantum-espresso.org/quote

     Parallel version (MPI), running on     4 processors

     MPI processes distributed on     1 nodes
     5440 MiB available memory on the printing compute node when the environment starts
 
     Waiting for input...
     Reading input from standard input

     Current dimensions of program PWSCF are:
     Max number of different atomic species (ntypx) = 10
     Max number of k-points (npk) =  40000
     Max angular momentum in pseudopotentials (lmaxx) =  4
     file Y.pz-spn-rrkjus_psl.1.0.0.UPF: wavefunction(s)  4S renormalized
     file Ba.pz-spn-rrkjus_psl.1.0.0.UPF: wavefunction(s)  5S 6S renormalized
     file Cu.pz-dn-rrkjus_psl.1.0.0.UPF: wavefunction(s)  3D renormalized
 
     R & G space division:  proc/nbgrp/npool/nimage =       4
     Subspace diagonalization in iterative solution of the eigenvalue problem:
     a serial algorithm will be used

 
     Parallelization info
     --------------------
     sticks:   dense  smooth     PW     G-vecs:    dense   smooth      PW
     Min         745     370    105                93979    33200    5039
     Max         746     371    106                93990    33217    5054
     Sum        2981    1481    421               375937   132821   20171
 
     Using Slab Decomposition
 


     bravais-lattice index     =            6
     lattice parameter (alat)  =       7.2264  a.u.
     unit-cell volume          =    1152.6629 (a.u.)^3
     number of atoms/cell      =           12
     number of atomic types    =            4
     number of electrons       =       100.00
     number of Kohn-Sham states=           60
     kinetic-energy cutoff     =      90.0000  Ry
     charge density cutoff     =     720.0000  Ry
     scf convergence threshold =      1.0E-08
     mixing beta               =       0.0500
     number of iterations used =            8  plain     mixing
     energy convergence thresh.=      1.0E-04
     force convergence thresh. =      1.0E-03
     press convergence thresh. =      5.0E-01
     Exchange-correlation= LDA
                           (   1   1   0   0   0   0   0)
     nstep                     =           50


     celldm(1)=   7.226353  celldm(2)=   0.000000  celldm(3)=   3.054532
     celldm(4)=   0.000000  celldm(5)=   0.000000  celldm(6)=   0.000000

     crystal axes: (cart. coord. in units of alat)
               a(1) = (   1.000000   0.000000   0.000000 )  
               a(2) = (   0.000000   1.000000   0.000000 )  
               a(3) = (   0.000000   0.000000   3.054532 )  

     reciprocal axes: (cart. coord. in units 2 pi/alat)
               b(1) = (  1.000000  0.000000  0.000000 )  
               b(2) = (  0.000000  1.000000  0.000000 )  
               b(3) = (  0.000000  0.000000  0.327382 )  


     PseudoPot. # 1 for Y  read from file:
     ~/q-e/pslibrary/pz/PSEUDOPOTENTIALS/Y.pz-spn-rrkjus_psl.1.0.0.UPF
     MD5 check sum: Not computed, couldn't open file
     Pseudo is Ultrasoft + core correction, Zval = 11.0
     Generated using 'atomic' code by A. Dal Corso  v.7.2
     Using radial grid of 1223 points,  6 beta functions with: 
                l(1) =   0
                l(2) =   0
                l(3) =   1
                l(4) =   1
                l(5) =   2
                l(6) =   2
     Q(r) pseudized with 0 coefficients 


     PseudoPot. # 2 for Ba read from file:
     ~/q-e/pslibrary/pz/PSEUDOPOTENTIALS/Ba.pz-spn-rrkjus_psl.1.0.0.UPF
     MD5 check sum: Not computed, couldn't open file
     Pseudo is Ultrasoft + core correction, Zval = 10.0
     Generated using 'atomic' code by A. Dal Corso  v.7.2
     Using radial grid of 1251 points,  7 beta functions with: 
                l(1) =   0
                l(2) =   0
                l(3) =   0
                l(4) =   1
                l(5) =   1
                l(6) =   2
                l(7) =   2
     Q(r) pseudized with 0 coefficients 


     PseudoPot. # 3 for Cu read from file:
     ~/q-e/pslibrary/pz/PSEUDOPOTENTIALS/Cu.pz-dn-rrkjus_psl.1.0.0.UPF
     MD5 check sum: Not computed, couldn't open file
     Pseudo is Ultrasoft + core correction, Zval = 11.0
     Generated using 'atomic' code by A. Dal Corso  v.7.2
     Using radial grid of 1199 points,  6 beta functions with: 
                l(1) =   0
                l(2) =   0
                l(3) =   1
                l(4) =   1
                l(5) =   2
                l(6) =   2
     Q(r) pseudized with 0 coefficients 


     PseudoPot. # 4 for O  read from file:
     ~/q-e/pslibrary/pz/PSEUDOPOTENTIALS/O.pz-n-rrkjus_psl.1.0.0.UPF
     MD5 check sum: Not computed, couldn't open file
     Pseudo is Ultrasoft + core correction, Zval =  6.0
     Generated using 'atomic' code by A. Dal Corso  v.7.2
     Using radial grid of 1095 points,  4 beta functions with: 
                l(1) =   0
                l(2) =   0
                l(3) =   1
                l(4) =   1
     Q(r) pseudized with 0 coefficients 


     atomic species   valence    mass     pseudopotential
     Y                11.00    88.90584     Y ( 1.00)
     Ba               10.00   137.32700     Ba( 1.00)
     Cu               11.00    63.54600     Cu( 1.00)
     O                 6.00    15.99900     O ( 1.00)

      8 Sym. Ops., with inversion, found


                                    s                        frac. trans.

      isym =  1     identity                                     

 cryst.   s( 1) = (     1          0          0      )
                  (     0          1          0      )
                  (     0          0          1      )

 cart.    s( 1) = (  1.0000000  0.0000000  0.0000000 )
                  (  0.0000000  1.0000000  0.0000000 )
                  (  0.0000000  0.0000000  1.0000000 )


      isym =  2     180 deg rotation - cart. axis [0,0,1]        

 cryst.   s( 2) = (    -1          0          0      )
                  (     0         -1          0      )
                  (     0          0          1      )

 cart.    s( 2) = ( -1.0000000  0.0000000  0.0000000 )
                  (  0.0000000 -1.0000000  0.0000000 )
                  (  0.0000000  0.0000000  1.0000000 )


      isym =  3     180 deg rotation - cart. axis [0,1,0]        

 cryst.   s( 3) = (    -1          0          0      )
                  (     0          1          0      )
                  (     0          0         -1      )

 cart.    s( 3) = ( -1.0000000  0.0000000  0.0000000 )
                  (  0.0000000  1.0000000  0.0000000 )
                  (  0.0000000  0.0000000 -1.0000000 )


      isym =  4     180 deg rotation - cart. axis [1,0,0]        

 cryst.   s( 4) = (     1          0          0      )
                  (     0         -1          0      )
                  (     0          0         -1      )

 cart.    s( 4) = (  1.0000000  0.0000000  0.0000000 )
                  (  0.0000000 -1.0000000  0.0000000 )
                  (  0.0000000  0.0000000 -1.0000000 )


      isym =  5     inversion                                    

 cryst.   s( 5) = (    -1          0          0      )
                  (     0         -1          0      )
                  (     0          0         -1      )

 cart.    s( 5) = ( -1.0000000  0.0000000  0.0000000 )
                  (  0.0000000 -1.0000000  0.0000000 )
                  (  0.0000000  0.0000000 -1.0000000 )


      isym =  6     inv. 180 deg rotation - cart. axis [0,0,1]   

 cryst.   s( 6) = (     1          0          0      )
                  (     0          1          0      )
                  (     0          0         -1      )

 cart.    s( 6) = (  1.0000000  0.0000000  0.0000000 )
                  (  0.0000000  1.0000000  0.0000000 )
                  (  0.0000000  0.0000000 -1.0000000 )


      isym =  7     inv. 180 deg rotation - cart. axis [0,1,0]   

 cryst.   s( 7) = (     1          0          0      )
                  (     0         -1          0      )
                  (     0          0          1      )

 cart.    s( 7) = (  1.0000000  0.0000000  0.0000000 )
                  (  0.0000000 -1.0000000  0.0000000 )
                  (  0.0000000  0.0000000  1.0000000 )


      isym =  8     inv. 180 deg rotation - cart. axis [1,0,0]   

 cryst.   s( 8) = (    -1          0          0      )
                  (     0          1          0      )
                  (     0          0          1      )

 cart.    s( 8) = ( -1.0000000  0.0000000  0.0000000 )
                  (  0.0000000  1.0000000  0.0000000 )
                  (  0.0000000  0.0000000  1.0000000 )


     point group D_2h (mmm) 
     there are  8 classes
     the character table:

       E     C2    C2'   C2''  i     s_v   s_v'  s_v''
A_g    1.00  1.00  1.00  1.00  1.00  1.00  1.00  1.00
B_1g   1.00  1.00 -1.00 -1.00  1.00  1.00 -1.00 -1.00
B_2g   1.00 -1.00  1.00 -1.00  1.00 -1.00  1.00 -1.00
B_3g   1.00 -1.00 -1.00  1.00  1.00 -1.00 -1.00  1.00
A_u    1.00  1.00  1.00  1.00 -1.00 -1.00 -1.00 -1.00
B_1u   1.00  1.00 -1.00 -1.00 -1.00 -1.00  1.00  1.00
B_2u   1.00 -1.00  1.00 -1.00 -1.00  1.00 -1.00  1.00
B_3u   1.00 -1.00 -1.00  1.00 -1.00  1.00  1.00 -1.00

     the symmetry operations in each class and the name of the first element:

     E        1
          identity                                               
     C2       2
          180 deg rotation - cart. axis [0,0,1]                  
     C2'      4
          180 deg rotation - cart. axis [1,0,0]                  
     C2''     3
          180 deg rotation - cart. axis [0,1,0]                  
     i        5
          inversion                                              
     s_v      6
          inv. 180 deg rotation - cart. axis [0,0,1]             
     s_v'     8
          inv. 180 deg rotation - cart. axis [1,0,0]             
     s_v''    7
          inv. 180 deg rotation - cart. axis [0,1,0]             

   Cartesian axes

     site n.     atom                  positions (alat units)
         1        Y      tau(   1) = (   0.5000000   0.5000000   1.5272661  )
         2        Ba     tau(   2) = (   0.5000000   0.5000000   0.5684391  )
         3        Ba     tau(   3) = (   0.5000000   0.5000000   2.4860930  )
         4        Cu     tau(   4) = (   0.0000000   0.0000000   0.0000000  )
         5        Cu     tau(   5) = (   0.0000000   0.0000000   1.0903646  )
         6        Cu     tau(   6) = (   0.0000000   0.0000000   1.9641676  )
         7        O      tau(   7) = (   0.5000000   0.0000000   1.1518692  )
         8        O      tau(   8) = (   0.5000000   0.0000000   1.9026629  )
         9        O      tau(   9) = (   0.0000000   0.5000000   1.1485454  )
        10        O      tau(  10) = (   0.0000000   0.5000000   1.9059868  )
        11        O      tau(  11) = (   0.0000000   0.0000000   0.4762684  )
        12        O      tau(  12) = (   0.0000000   0.0000000   2.5782637  )

   Crystallographic axes

     site n.     atom                  positions (cryst. coord.)
         1        Y      tau(   1) = (  0.5000000  0.5000000  0.5000000  )
         2        Ba     tau(   2) = (  0.5000000  0.5000000  0.1860969  )
         3        Ba     tau(   3) = (  0.5000000  0.5000000  0.8139031  )
         4        Cu     tau(   4) = (  0.0000000  0.0000000  0.0000000  )
         5        Cu     tau(   5) = (  0.0000000  0.0000000  0.3569661  )
         6        Cu     tau(   6) = (  0.0000000  0.0000000  0.6430339  )
         7        O      tau(   7) = (  0.5000000  0.0000000  0.3771017  )
         8        O      tau(   8) = (  0.5000000  0.0000000  0.6228983  )
         9        O      tau(   9) = (  0.0000000  0.5000000  0.3760135  )
        10        O      tau(  10) = (  0.0000000  0.5000000  0.6239865  )
        11        O      tau(  11) = (  0.0000000  0.0000000  0.1559219  )
        12        O      tau(  12) = (  0.0000000  0.0000000  0.8440781  )

     number of k points=    27  Methfessel-Paxton smearing, width (Ry)=  0.0500
                       cart. coord. in units 2pi/alat
        k(    1) = (   0.0000000   0.0000000   0.0000000), wk =   0.0312500
        k(    2) = (   0.0000000   0.0000000   0.0818456), wk =   0.0625000
        k(    3) = (   0.0000000   0.0000000  -0.1636912), wk =   0.0312500
        k(    4) = (   0.0000000   0.2500000   0.0000000), wk =   0.0625000
        k(    5) = (   0.0000000   0.2500000   0.0818456), wk =   0.1250000
        k(    6) = (   0.0000000   0.2500000  -0.1636912), wk =   0.0625000
        k(    7) = (   0.0000000  -0.5000000   0.0000000), wk =   0.0312500
        k(    8) = (   0.0000000  -0.5000000   0.0818456), wk =   0.0625000
        k(    9) = (   0.0000000  -0.5000000  -0.1636912), wk =   0.0312500
        k(   10) = (   0.2500000   0.2500000   0.0000000), wk =   0.1250000
        k(   11) = (   0.2500000   0.2500000   0.0818456), wk =   0.2500000
        k(   12) = (   0.2500000   0.2500000  -0.1636912), wk =   0.1250000
        k(   13) = (   0.2500000  -0.5000000   0.0000000), wk =   0.0625000
        k(   14) = (   0.2500000  -0.5000000   0.0818456), wk =   0.1250000
        k(   15) = (   0.2500000  -0.5000000  -0.1636912), wk =   0.0625000
        k(   16) = (  -0.5000000  -0.5000000   0.0000000), wk =   0.0312500
        k(   17) = (  -0.5000000  -0.5000000   0.0818456), wk =   0.0625000
        k(   18) = (  -0.5000000  -0.5000000  -0.1636912), wk =   0.0312500
        k(   19) = (   0.2500000   0.0000000   0.0000000), wk =   0.0625000
        k(   20) = (   0.2500000   0.0000000  -0.0818456), wk =   0.1250000
        k(   21) = (   0.2500000   0.0000000   0.1636912), wk =   0.0625000
        k(   22) = (  -0.5000000   0.0000000   0.0000000), wk =   0.0312500
        k(   23) = (  -0.5000000   0.0000000  -0.0818456), wk =   0.0625000
        k(   24) = (  -0.5000000   0.0000000   0.1636912), wk =   0.0312500
        k(   25) = (  -0.5000000   0.2500000   0.0000000), wk =   0.0625000
        k(   26) = (  -0.5000000   0.2500000  -0.0818456), wk =   0.1250000
        k(   27) = (  -0.5000000   0.2500000   0.1636912), wk =   0.0625000

                       cryst. coord.
        k(    1) = (   0.0000000   0.0000000   0.0000000), wk =   0.0312500
        k(    2) = (   0.0000000   0.0000000   0.2500000), wk =   0.0625000
        k(    3) = (   0.0000000   0.0000000  -0.5000000), wk =   0.0312500
        k(    4) = (   0.0000000   0.2500000   0.0000000), wk =   0.0625000
        k(    5) = (   0.0000000   0.2500000   0.2500000), wk =   0.1250000
        k(    6) = (   0.0000000   0.2500000  -0.5000000), wk =   0.0625000
        k(    7) = (   0.0000000  -0.5000000   0.0000000), wk =   0.0312500
        k(    8) = (   0.0000000  -0.5000000   0.2500000), wk =   0.0625000
        k(    9) = (   0.0000000  -0.5000000  -0.5000000), wk =   0.0312500
        k(   10) = (   0.2500000   0.2500000   0.0000000), wk =   0.1250000
        k(   11) = (   0.2500000   0.2500000   0.2500000), wk =   0.2500000
        k(   12) = (   0.2500000   0.2500000  -0.5000000), wk =   0.1250000
        k(   13) = (   0.2500000  -0.5000000   0.0000000), wk =   0.0625000
        k(   14) = (   0.2500000  -0.5000000   0.2500000), wk =   0.1250000
        k(   15) = (   0.2500000  -0.5000000  -0.5000000), wk =   0.0625000
        k(   16) = (  -0.5000000  -0.5000000   0.0000000), wk =   0.0312500
        k(   17) = (  -0.5000000  -0.5000000   0.2500000), wk =   0.0625000
        k(   18) = (  -0.5000000  -0.5000000  -0.5000000), wk =   0.0312500
        k(   19) = (   0.2500000   0.0000000   0.0000000), wk =   0.0625000
        k(   20) = (   0.2500000   0.0000000  -0.2500000), wk =   0.1250000
        k(   21) = (   0.2500000   0.0000000   0.5000000), wk =   0.0625000
        k(   22) = (  -0.5000000   0.0000000   0.0000000), wk =   0.0312500
        k(   23) = (  -0.5000000   0.0000000  -0.2500000), wk =   0.0625000
        k(   24) = (  -0.5000000   0.0000000   0.5000000), wk =   0.0312500
        k(   25) = (  -0.5000000   0.2500000   0.0000000), wk =   0.0625000
        k(   26) = (  -0.5000000   0.2500000  -0.2500000), wk =   0.1250000
        k(   27) = (  -0.5000000   0.2500000   0.5000000), wk =   0.0625000

     Dense  grid:   375937 G-vectors     FFT dimensions: (  64,  64, 192)

     Smooth grid:   132821 G-vectors     FFT dimensions: (  45,  45, 135)

     Dynamical RAM for                 wfc:       3.80 MB

     Dynamical RAM for     wfc (w. buffer):     106.49 MB

     Dynamical RAM for           str. fact:       5.74 MB

     Dynamical RAM for           local pot:       0.00 MB

     Dynamical RAM for          nlocal pot:      10.01 MB

     Dynamical RAM for                qrad:      22.96 MB

     Dynamical RAM for          rho,v,vnew:       8.80 MB

     Dynamical RAM for               rhoin:       2.93 MB

     Dynamical RAM for            rho*nmix:      22.95 MB

     Dynamical RAM for           G-vectors:       5.63 MB

     Dynamical RAM for          h,s,v(r/c):       0.66 MB

     Dynamical RAM for          <psi|beta>:       0.14 MB

     Dynamical RAM for                 psi:       7.61 MB

     Dynamical RAM for                hpsi:       7.61 MB

     Dynamical RAM for                spsi:       7.61 MB

     Dynamical RAM for      wfcinit/wfcrot:       9.51 MB

     Dynamical RAM for           addusdens:     302.61 MB

     Dynamical RAM for          addusforce:     317.69 MB

     Dynamical RAM for         addusstress:     315.51 MB

     Estimated static dynamical RAM per process >     177.24 MB

     Estimated max dynamical RAM per process >     517.88 MB

     Estimated total dynamical RAM >       2.02 GB

     Initial potential from superposition of free atoms

     starting charge      99.9671, renormalised to     100.0000
     Starting wfcs are   74 randomized atomic wfcs

     total cpu time spent up to now is        4.1 secs

     Self-consistent Calculation

     iteration #  1     ecut=    90.00 Ry     beta= 0.05
     Davidson diagonalization with overlap

---- Real-time Memory Report at c_bands before calling an iterative solver
           460 MiB given to the printing process from OS
             0 MiB allocation reported by mallinfo(arena+hblkhd)
          4563 MiB available memory on the node where the printing process lives
------------------
     ethr =  1.00E-02,  avg # of iterations =  4.1

     total cpu time spent up to now is       11.4 secs

     total energy              =    -772.11047726 Ry
     estimated scf accuracy    <       3.90157792 Ry

     iteration #  2     ecut=    90.00 Ry     beta= 0.05
     Davidson diagonalization with overlap

---- Real-time Memory Report at c_bands before calling an iterative solver
           610 MiB given to the printing process from OS
             0 MiB allocation reported by mallinfo(arena+hblkhd)
          4428 MiB available memory on the node where the printing process lives
------------------
     ethr =  3.90E-03,  avg # of iterations =  1.1

     total cpu time spent up to now is       17.6 secs

     total energy              =    -772.15740311 Ry
     estimated scf accuracy    <       8.80356038 Ry

     iteration #  3     ecut=    90.00 Ry     beta= 0.05
     Davidson diagonalization with overlap

---- Real-time Memory Report at c_bands before calling an iterative solver
           617 MiB given to the printing process from OS
             0 MiB allocation reported by mallinfo(arena+hblkhd)
          4428 MiB available memory on the node where the printing process lives
------------------
     ethr =  3.90E-03,  avg # of iterations =  2.0

     total cpu time spent up to now is       25.3 secs

     total energy              =    -771.24562428 Ry
     estimated scf accuracy    <      40.77171154 Ry

     iteration #  4     ecut=    90.00 Ry     beta= 0.05
     Davidson diagonalization with overlap

---- Real-time Memory Report at c_bands before calling an iterative solver
           618 MiB given to the printing process from OS
             0 MiB allocation reported by mallinfo(arena+hblkhd)
          4423 MiB available memory on the node where the printing process lives
------------------
     ethr =  3.90E-03,  avg # of iterations =  2.0

     total cpu time spent up to now is       33.3 secs

     total energy              =    -771.63645611 Ry
     estimated scf accuracy    <       9.12699819 Ry

     iteration #  5     ecut=    90.00 Ry     beta= 0.05
     Davidson diagonalization with overlap

---- Real-time Memory Report at c_bands before calling an iterative solver
           619 MiB given to the printing process from OS
             0 MiB allocation reported by mallinfo(arena+hblkhd)
          4417 MiB available memory on the node where the printing process lives
------------------
     ethr =  3.90E-03,  avg # of iterations =  2.0

     total cpu time spent up to now is       41.1 secs

     total energy              =    -771.68162150 Ry
     estimated scf accuracy    <      30.24006114 Ry

     iteration #  6     ecut=    90.00 Ry     beta= 0.05
     Davidson diagonalization with overlap

---- Real-time Memory Report at c_bands before calling an iterative solver
           620 MiB given to the printing process from OS
             0 MiB allocation reported by mallinfo(arena+hblkhd)
          4415 MiB available memory on the node where the printing process lives
------------------
     ethr =  3.90E-03,  avg # of iterations =  1.1

     total cpu time spent up to now is       48.3 secs

     total energy              =    -771.72400035 Ry
     estimated scf accuracy    <       3.49571822 Ry

     iteration #  7     ecut=    90.00 Ry     beta= 0.05
     Davidson diagonalization with overlap

---- Real-time Memory Report at c_bands before calling an iterative solver
           621 MiB given to the printing process from OS
             0 MiB allocation reported by mallinfo(arena+hblkhd)
          4409 MiB available memory on the node where the printing process lives
------------------
     ethr =  3.50E-03,  avg # of iterations =  1.4

     total cpu time spent up to now is       55.6 secs

     total energy              =    -771.68135323 Ry
     estimated scf accuracy    <       1.42008670 Ry

     iteration #  8     ecut=    90.00 Ry     beta= 0.05
     Davidson diagonalization with overlap

---- Real-time Memory Report at c_bands before calling an iterative solver
           622 MiB given to the printing process from OS
             0 MiB allocation reported by mallinfo(arena+hblkhd)
          4405 MiB available memory on the node where the printing process lives
------------------
     ethr =  1.42E-03,  avg # of iterations =  3.2

     total cpu time spent up to now is       63.9 secs

     total energy              =    -771.72483141 Ry
     estimated scf accuracy    <      10.84848678 Ry

     iteration #  9     ecut=    90.00 Ry     beta= 0.05
     Davidson diagonalization with overlap

---- Real-time Memory Report at c_bands before calling an iterative solver
           623 MiB given to the printing process from OS
             0 MiB allocation reported by mallinfo(arena+hblkhd)
          4403 MiB available memory on the node where the printing process lives
------------------
     ethr =  1.42E-03,  avg # of iterations =  1.4

     total cpu time spent up to now is       71.5 secs

     total energy              =    -771.67454309 Ry
     estimated scf accuracy    <       6.36200164 Ry

     iteration # 10     ecut=    90.00 Ry     beta= 0.05
     Davidson diagonalization with overlap

---- Real-time Memory Report at c_bands before calling an iterative solver
           624 MiB given to the printing process from OS
             0 MiB allocation reported by mallinfo(arena+hblkhd)
          4399 MiB available memory on the node where the printing process lives
------------------
     ethr =  1.42E-03,  avg # of iterations =  2.4

     total cpu time spent up to now is       79.5 secs

     total energy              =    -771.74284704 Ry
     estimated scf accuracy    <       4.53203733 Ry

     iteration # 11     ecut=    90.00 Ry     beta= 0.05
     Davidson diagonalization with overlap

---- Real-time Memory Report at c_bands before calling an iterative solver
           625 MiB given to the printing process from OS
             0 MiB allocation reported by mallinfo(arena+hblkhd)
          4398 MiB available memory on the node where the printing process lives
------------------
     ethr =  1.42E-03,  avg # of iterations =  1.3

     total cpu time spent up to now is       86.8 secs

     total energy              =    -771.73287905 Ry
     estimated scf accuracy    <      10.63120174 Ry

     iteration # 12     ecut=    90.00 Ry     beta= 0.05
     Davidson diagonalization with overlap

---- Real-time Memory Report at c_bands before calling an iterative solver
           625 MiB given to the printing process from OS
             0 MiB allocation reported by mallinfo(arena+hblkhd)
          4398 MiB available memory on the node where the printing process lives
------------------
     ethr =  1.42E-03,  avg # of iterations =  1.4

     total cpu time spent up to now is       94.1 secs

     total energy              =    -771.70450242 Ry
     estimated scf accuracy    <       7.29886652 Ry

     iteration # 13     ecut=    90.00 Ry     beta= 0.05
     Davidson diagonalization with overlap

---- Real-time Memory Report at c_bands before calling an iterative solver
           625 MiB given to the printing process from OS
             0 MiB allocation reported by mallinfo(arena+hblkhd)
          4399 MiB available memory on the node where the printing process lives
------------------
     ethr =  1.42E-03,  avg # of iterations =  2.0

     total cpu time spent up to now is      102.1 secs

     total energy              =    -771.72286620 Ry
     estimated scf accuracy    <       1.36528388 Ry

     iteration # 14     ecut=    90.00 Ry     beta= 0.05
     Davidson diagonalization with overlap

---- Real-time Memory Report at c_bands before calling an iterative solver
           625 MiB given to the printing process from OS
             0 MiB allocation reported by mallinfo(arena+hblkhd)
          4397 MiB available memory on the node where the printing process lives
------------------
     ethr =  1.37E-03,  avg # of iterations =  1.0

     total cpu time spent up to now is      109.5 secs

     total energy              =    -771.71244040 Ry
     estimated scf accuracy    <       1.42380262 Ry

     iteration # 15     ecut=    90.00 Ry     beta= 0.05
     Davidson diagonalization with overlap

---- Real-time Memory Report at c_bands before calling an iterative solver
           625 MiB given to the printing process from OS
             0 MiB allocation reported by mallinfo(arena+hblkhd)
          4401 MiB available memory on the node where the printing process lives
------------------
     ethr =  1.37E-03,  avg # of iterations =  1.1

     total cpu time spent up to now is      116.8 secs

     total energy              =    -771.73060869 Ry
     estimated scf accuracy    <       0.57096033 Ry

     iteration # 16     ecut=    90.00 Ry     beta= 0.05
     Davidson diagonalization with overlap

---- Real-time Memory Report at c_bands before calling an iterative solver
           625 MiB given to the printing process from OS
             0 MiB allocation reported by mallinfo(arena+hblkhd)
          4399 MiB available memory on the node where the printing process lives
------------------
     ethr =  5.71E-04,  avg # of iterations =  2.3

     total cpu time spent up to now is      124.9 secs

     total energy              =    -771.68643198 Ry
     estimated scf accuracy    <      28.56063484 Ry

     iteration # 17     ecut=    90.00 Ry     beta= 0.05
     Davidson diagonalization with overlap

---- Real-time Memory Report at c_bands before calling an iterative solver
           625 MiB given to the printing process from OS
             0 MiB allocation reported by mallinfo(arena+hblkhd)
          4401 MiB available memory on the node where the printing process lives
------------------
     ethr =  5.71E-04,  avg # of iterations =  2.0

     total cpu time spent up to now is      132.9 secs

     total energy              =    -771.71068605 Ry
     estimated scf accuracy    <       3.30776971 Ry

     iteration # 18     ecut=    90.00 Ry     beta= 0.05
     Davidson diagonalization with overlap

---- Real-time Memory Report at c_bands before calling an iterative solver
           625 MiB given to the printing process from OS
             0 MiB allocation reported by mallinfo(arena+hblkhd)
          4399 MiB available memory on the node where the printing process lives
------------------
     ethr =  5.71E-04,  avg # of iterations =  1.0

     total cpu time spent up to now is      140.2 secs

     total energy              =    -771.71247655 Ry
     estimated scf accuracy    <       2.29737690 Ry

     iteration # 19     ecut=    90.00 Ry     beta= 0.05
     Davidson diagonalization with overlap

---- Real-time Memory Report at c_bands before calling an iterative solver
           625 MiB given to the printing process from OS
             0 MiB allocation reported by mallinfo(arena+hblkhd)
          4401 MiB available memory on the node where the printing process lives
------------------
     ethr =  5.71E-04,  avg # of iterations =  1.1

     total cpu time spent up to now is      147.4 secs

     total energy              =    -771.71078469 Ry
     estimated scf accuracy    <       0.90338716 Ry

     iteration # 20     ecut=    90.00 Ry     beta= 0.05
     Davidson diagonalization with overlap

---- Real-time Memory Report at c_bands before calling an iterative solver
           625 MiB given to the printing process from OS
             0 MiB allocation reported by mallinfo(arena+hblkhd)
          4401 MiB available memory on the node where the printing process lives
------------------
     ethr =  5.71E-04,  avg # of iterations =  1.1

     total cpu time spent up to now is      154.7 secs

     total energy              =    -771.71159086 Ry
     estimated scf accuracy    <       0.30798198 Ry

     iteration # 21     ecut=    90.00 Ry     beta= 0.05
     Davidson diagonalization with overlap

---- Real-time Memory Report at c_bands before calling an iterative solver
           625 MiB given to the printing process from OS
             0 MiB allocation reported by mallinfo(arena+hblkhd)
          4405 MiB available memory on the node where the printing process lives
------------------
     ethr =  3.08E-04,  avg # of iterations =  1.3

     total cpu time spent up to now is      162.0 secs

     total energy              =    -771.71046469 Ry
     estimated scf accuracy    <       0.37316521 Ry

     iteration # 22     ecut=    90.00 Ry     beta= 0.05
     Davidson diagonalization with overlap

---- Real-time Memory Report at c_bands before calling an iterative solver
           625 MiB given to the printing process from OS
             0 MiB allocation reported by mallinfo(arena+hblkhd)
          4405 MiB available memory on the node where the printing process lives
------------------
     ethr =  3.08E-04,  avg # of iterations =  1.4

     total cpu time spent up to now is      169.5 secs

     total energy              =    -771.71202497 Ry
     estimated scf accuracy    <       0.35736213 Ry

     iteration # 23     ecut=    90.00 Ry     beta= 0.05
     Davidson diagonalization with overlap

---- Real-time Memory Report at c_bands before calling an iterative solver
           625 MiB given to the printing process from OS
             0 MiB allocation reported by mallinfo(arena+hblkhd)
          4407 MiB available memory on the node where the printing process lives
------------------
     ethr =  3.08E-04,  avg # of iterations =  1.0

     total cpu time spent up to now is      176.7 secs

     total energy              =    -771.71220882 Ry
     estimated scf accuracy    <       0.36921350 Ry

     iteration # 24     ecut=    90.00 Ry     beta= 0.05
     Davidson diagonalization with overlap

---- Real-time Memory Report at c_bands before calling an iterative solver
           625 MiB given to the printing process from OS
             0 MiB allocation reported by mallinfo(arena+hblkhd)
          4405 MiB available memory on the node where the printing process lives
------------------
     ethr =  3.08E-04,  avg # of iterations =  1.1

     total cpu time spent up to now is      183.9 secs

     total energy              =    -771.71193282 Ry
     estimated scf accuracy    <       0.36953322 Ry

     iteration # 25     ecut=    90.00 Ry     beta= 0.05
     Davidson diagonalization with overlap

---- Real-time Memory Report at c_bands before calling an iterative solver
           625 MiB given to the printing process from OS
             0 MiB allocation reported by mallinfo(arena+hblkhd)
          4405 MiB available memory on the node where the printing process lives
------------------
     ethr =  3.08E-04,  avg # of iterations =  1.8

     total cpu time spent up to now is      191.4 secs

     total energy              =    -771.71205146 Ry
     estimated scf accuracy    <       0.33829978 Ry

     iteration # 26     ecut=    90.00 Ry     beta= 0.05
     Davidson diagonalization with overlap

---- Real-time Memory Report at c_bands before calling an iterative solver
           625 MiB given to the printing process from OS
             0 MiB allocation reported by mallinfo(arena+hblkhd)
          4407 MiB available memory on the node where the printing process lives
------------------
     ethr =  3.08E-04,  avg # of iterations =  1.0

     total cpu time spent up to now is      198.6 secs

     total energy              =    -771.71144700 Ry
     estimated scf accuracy    <       0.18548726 Ry

     iteration # 27     ecut=    90.00 Ry     beta= 0.05
     Davidson diagonalization with overlap

---- Real-time Memory Report at c_bands before calling an iterative solver
           625 MiB given to the printing process from OS
             0 MiB allocation reported by mallinfo(arena+hblkhd)
          4407 MiB available memory on the node where the printing process lives
------------------
     ethr =  1.85E-04,  avg # of iterations =  2.0

     total cpu time spent up to now is      206.1 secs

     total energy              =    -771.71169035 Ry
     estimated scf accuracy    <       0.08705576 Ry

     iteration # 28     ecut=    90.00 Ry     beta= 0.05
     Davidson diagonalization with overlap

---- Real-time Memory Report at c_bands before calling an iterative solver
           625 MiB given to the printing process from OS
             0 MiB allocation reported by mallinfo(arena+hblkhd)
          4409 MiB available memory on the node where the printing process lives
------------------
     ethr =  8.71E-05,  avg # of iterations =  3.3

     total cpu time spent up to now is      214.1 secs

     total energy              =    -771.71130253 Ry
     estimated scf accuracy    <       0.03321873 Ry

     iteration # 29     ecut=    90.00 Ry     beta= 0.05
     Davidson diagonalization with overlap

---- Real-time Memory Report at c_bands before calling an iterative solver
           625 MiB given to the printing process from OS
             0 MiB allocation reported by mallinfo(arena+hblkhd)
          4407 MiB available memory on the node where the printing process lives
------------------
     c_bands:  1 eigenvalues not converged
     ethr =  3.32E-05,  avg # of iterations = 12.5

     total cpu time spent up to now is      224.6 secs

     total energy              =    -771.71145011 Ry
     estimated scf accuracy    <       0.09343517 Ry

     iteration # 30     ecut=    90.00 Ry     beta= 0.05
     Davidson diagonalization with overlap

---- Real-time Memory Report at c_bands before calling an iterative solver
           625 MiB given to the printing process from OS
             0 MiB allocation reported by mallinfo(arena+hblkhd)
          4407 MiB available memory on the node where the printing process lives
------------------
     ethr =  3.32E-05,  avg # of iterations =  1.4

     total cpu time spent up to now is      232.1 secs

     total energy              =    -771.71154429 Ry
     estimated scf accuracy    <       0.01655809 Ry

     iteration # 31     ecut=    90.00 Ry     beta= 0.05
     Davidson diagonalization with overlap

---- Real-time Memory Report at c_bands before calling an iterative solver
           625 MiB given to the printing process from OS
             0 MiB allocation reported by mallinfo(arena+hblkhd)
          4407 MiB available memory on the node where the printing process lives
------------------
     ethr =  1.66E-05,  avg # of iterations =  1.7

     total cpu time spent up to now is      239.5 secs

     total energy              =    -771.71145715 Ry
     estimated scf accuracy    <       0.00958735 Ry

     iteration # 32     ecut=    90.00 Ry     beta= 0.05
     Davidson diagonalization with overlap

---- Real-time Memory Report at c_bands before calling an iterative solver
           625 MiB given to the printing process from OS
             0 MiB allocation reported by mallinfo(arena+hblkhd)
          4409 MiB available memory on the node where the printing process lives
------------------
     ethr =  9.59E-06,  avg # of iterations =  2.1

     total cpu time spent up to now is      247.4 secs

     total energy              =    -771.71151158 Ry
     estimated scf accuracy    <       0.00074897 Ry

     iteration # 33     ecut=    90.00 Ry     beta= 0.05
     Davidson diagonalization with overlap

---- Real-time Memory Report at c_bands before calling an iterative solver
           625 MiB given to the printing process from OS
             0 MiB allocation reported by mallinfo(arena+hblkhd)
          4407 MiB available memory on the node where the printing process lives
------------------
     c_bands:  2 eigenvalues not converged
     ethr =  7.49E-07,  avg # of iterations =  9.0

     total cpu time spent up to now is      257.5 secs

     total energy              =    -771.71152792 Ry
     estimated scf accuracy    <       0.03888639 Ry

     iteration # 34     ecut=    90.00 Ry     beta= 0.05
     Davidson diagonalization with overlap

---- Real-time Memory Report at c_bands before calling an iterative solver
           625 MiB given to the printing process from OS
             0 MiB allocation reported by mallinfo(arena+hblkhd)
          4397 MiB available memory on the node where the printing process lives
------------------
     ethr =  7.49E-07,  avg # of iterations =  2.0

     total cpu time spent up to now is      265.3 secs

     total energy              =    -771.71141479 Ry
     estimated scf accuracy    <       0.01384254 Ry

     iteration # 35     ecut=    90.00 Ry     beta= 0.05
     Davidson diagonalization with overlap

---- Real-time Memory Report at c_bands before calling an iterative solver
           625 MiB given to the printing process from OS
             0 MiB allocation reported by mallinfo(arena+hblkhd)
          4399 MiB available memory on the node where the printing process lives
------------------
     ethr =  7.49E-07,  avg # of iterations =  6.9

     total cpu time spent up to now is      274.5 secs

     total energy              =    -771.71148218 Ry
     estimated scf accuracy    <       0.01579905 Ry

     iteration # 36     ecut=    90.00 Ry     beta= 0.05
     Davidson diagonalization with overlap

---- Real-time Memory Report at c_bands before calling an iterative solver
           625 MiB given to the printing process from OS
             0 MiB allocation reported by mallinfo(arena+hblkhd)
          4398 MiB available memory on the node where the printing process lives
------------------
     ethr =  7.49E-07,  avg # of iterations =  4.2

     total cpu time spent up to now is      283.0 secs

     total energy              =    -771.71149724 Ry
     estimated scf accuracy    <       0.00138934 Ry

     iteration # 37     ecut=    90.00 Ry     beta= 0.05
     Davidson diagonalization with overlap

---- Real-time Memory Report at c_bands before calling an iterative solver
           625 MiB given to the printing process from OS
             0 MiB allocation reported by mallinfo(arena+hblkhd)
          4396 MiB available memory on the node where the printing process lives
------------------
     ethr =  7.49E-07,  avg # of iterations =  4.7

     total cpu time spent up to now is      291.5 secs

     total energy              =    -771.71152530 Ry
     estimated scf accuracy    <       0.00390363 Ry

     iteration # 38     ecut=    90.00 Ry     beta= 0.05
     Davidson diagonalization with overlap

---- Real-time Memory Report at c_bands before calling an iterative solver
           625 MiB given to the printing process from OS
             0 MiB allocation reported by mallinfo(arena+hblkhd)
          4396 MiB available memory on the node where the printing process lives
------------------
     ethr =  7.49E-07,  avg # of iterations =  1.0

     total cpu time spent up to now is      298.7 secs

     total energy              =    -771.71150173 Ry
     estimated scf accuracy    <       0.00257126 Ry

     iteration # 39     ecut=    90.00 Ry     beta= 0.05
     Davidson diagonalization with overlap

---- Real-time Memory Report at c_bands before calling an iterative solver
           625 MiB given to the printing process from OS
             0 MiB allocation reported by mallinfo(arena+hblkhd)
          4267 MiB available memory on the node where the printing process lives
------------------
     ethr =  7.49E-07,  avg # of iterations =  3.0

     total cpu time spent up to now is      306.8 secs

     total energy              =    -771.71151943 Ry
     estimated scf accuracy    <       0.00041744 Ry

     iteration # 40     ecut=    90.00 Ry     beta= 0.05
     Davidson diagonalization with overlap

---- Real-time Memory Report at c_bands before calling an iterative solver
           625 MiB given to the printing process from OS
             0 MiB allocation reported by mallinfo(arena+hblkhd)
          4393 MiB available memory on the node where the printing process lives
------------------
     ethr =  4.17E-07,  avg # of iterations =  1.4

     total cpu time spent up to now is      314.3 secs

     total energy              =    -771.71152091 Ry
     estimated scf accuracy    <       0.00001769 Ry

     iteration # 41     ecut=    90.00 Ry     beta= 0.05
     Davidson diagonalization with overlap

---- Real-time Memory Report at c_bands before calling an iterative solver
           625 MiB given to the printing process from OS
             0 MiB allocation reported by mallinfo(arena+hblkhd)
          4395 MiB available memory on the node where the printing process lives
------------------
     ethr =  1.77E-08,  avg # of iterations =  3.4

     total cpu time spent up to now is      322.4 secs

     total energy              =    -771.71152147 Ry
     estimated scf accuracy    <       0.00002215 Ry

     iteration # 42     ecut=    90.00 Ry     beta= 0.05
     Davidson diagonalization with overlap

---- Real-time Memory Report at c_bands before calling an iterative solver
           625 MiB given to the printing process from OS
             0 MiB allocation reported by mallinfo(arena+hblkhd)
          4397 MiB available memory on the node where the printing process lives
------------------
     ethr =  1.77E-08,  avg # of iterations =  1.3

     total cpu time spent up to now is      329.7 secs

     total energy              =    -771.71152138 Ry
     estimated scf accuracy    <       0.00000535 Ry

     iteration # 43     ecut=    90.00 Ry     beta= 0.05
     Davidson diagonalization with overlap

---- Real-time Memory Report at c_bands before calling an iterative solver
           625 MiB given to the printing process from OS
             0 MiB allocation reported by mallinfo(arena+hblkhd)
          4397 MiB available memory on the node where the printing process lives
------------------
     ethr =  5.35E-09,  avg # of iterations =  7.3

     total cpu time spent up to now is      339.3 secs

     total energy              =    -771.71151571 Ry
     estimated scf accuracy    <       0.00189349 Ry

     iteration # 44     ecut=    90.00 Ry     beta= 0.05
     Davidson diagonalization with overlap

---- Real-time Memory Report at c_bands before calling an iterative solver
           625 MiB given to the printing process from OS
             0 MiB allocation reported by mallinfo(arena+hblkhd)
          4397 MiB available memory on the node where the printing process lives
------------------
     ethr =  5.35E-09,  avg # of iterations =  7.3

     total cpu time spent up to now is      349.2 secs

     total energy              =    -771.71152216 Ry
     estimated scf accuracy    <       0.00004850 Ry

     iteration # 45     ecut=    90.00 Ry     beta= 0.05
     Davidson diagonalization with overlap

---- Real-time Memory Report at c_bands before calling an iterative solver
           625 MiB given to the printing process from OS
             0 MiB allocation reported by mallinfo(arena+hblkhd)
          4396 MiB available memory on the node where the printing process lives
------------------
     ethr =  5.35E-09,  avg # of iterations =  6.9

     total cpu time spent up to now is      358.5 secs

     total energy              =    -771.71151720 Ry
     estimated scf accuracy    <       0.00102538 Ry

     iteration # 46     ecut=    90.00 Ry     beta= 0.05
     Davidson diagonalization with overlap

---- Real-time Memory Report at c_bands before calling an iterative solver
           625 MiB given to the printing process from OS
             0 MiB allocation reported by mallinfo(arena+hblkhd)
          4395 MiB available memory on the node where the printing process lives
------------------
     ethr =  5.35E-09,  avg # of iterations =  7.3

     total cpu time spent up to now is      368.2 secs

     total energy              =    -771.71152177 Ry
     estimated scf accuracy    <       0.00030120 Ry

     iteration # 47     ecut=    90.00 Ry     beta= 0.05
     Davidson diagonalization with overlap

---- Real-time Memory Report at c_bands before calling an iterative solver
           625 MiB given to the printing process from OS
             0 MiB allocation reported by mallinfo(arena+hblkhd)
          4397 MiB available memory on the node where the printing process lives
------------------
     ethr =  5.35E-09,  avg # of iterations =  3.6

     total cpu time spent up to now is      376.3 secs

     total energy              =    -771.71152061 Ry
     estimated scf accuracy    <       0.00017671 Ry

     iteration # 48     ecut=    90.00 Ry     beta= 0.05
     Davidson diagonalization with overlap

---- Real-time Memory Report at c_bands before calling an iterative solver
           625 MiB given to the printing process from OS
             0 MiB allocation reported by mallinfo(arena+hblkhd)
          4398 MiB available memory on the node where the printing process lives
------------------
     ethr =  5.35E-09,  avg # of iterations =  6.5

     total cpu time spent up to now is      385.4 secs

     total energy              =    -771.71152139 Ry
     estimated scf accuracy    <       0.00004388 Ry

     iteration # 49     ecut=    90.00 Ry     beta= 0.05
     Davidson diagonalization with overlap

---- Real-time Memory Report at c_bands before calling an iterative solver
           625 MiB given to the printing process from OS
             0 MiB allocation reported by mallinfo(arena+hblkhd)
          4398 MiB available memory on the node where the printing process lives
------------------
     ethr =  5.35E-09,  avg # of iterations =  4.9

     total cpu time spent up to now is      394.1 secs

     total energy              =    -771.71152164 Ry
     estimated scf accuracy    <       0.00000381 Ry

     iteration # 50     ecut=    90.00 Ry     beta= 0.05
     Davidson diagonalization with overlap

---- Real-time Memory Report at c_bands before calling an iterative solver
           625 MiB given to the printing process from OS
             0 MiB allocation reported by mallinfo(arena+hblkhd)
          4400 MiB available memory on the node where the printing process lives
------------------
     ethr =  3.81E-09,  avg # of iterations =  1.0

     total cpu time spent up to now is      401.3 secs

     total energy              =    -771.71152162 Ry
     estimated scf accuracy    <       0.00000219 Ry

     iteration # 51     ecut=    90.00 Ry     beta= 0.05
     Davidson diagonalization with overlap

---- Real-time Memory Report at c_bands before calling an iterative solver
           625 MiB given to the printing process from OS
             0 MiB allocation reported by mallinfo(arena+hblkhd)
          4400 MiB available memory on the node where the printing process lives
------------------
     ethr =  2.19E-09,  avg # of iterations =  2.1

     total cpu time spent up to now is      409.1 secs

     total energy              =    -771.71152165 Ry
     estimated scf accuracy    <       0.00000007 Ry

     iteration # 52     ecut=    90.00 Ry     beta= 0.05
     Davidson diagonalization with overlap

---- Real-time Memory Report at c_bands before calling an iterative solver
           625 MiB given to the printing process from OS
             0 MiB allocation reported by mallinfo(arena+hblkhd)
          4402 MiB available memory on the node where the printing process lives
------------------
     ethr =  6.61E-11,  avg # of iterations =  8.2

     total cpu time spent up to now is      419.3 secs

     total energy              =    -771.71152153 Ry
     estimated scf accuracy    <       0.00002416 Ry

     iteration # 53     ecut=    90.00 Ry     beta= 0.05
     Davidson diagonalization with overlap

---- Real-time Memory Report at c_bands before calling an iterative solver
           625 MiB given to the printing process from OS
             0 MiB allocation reported by mallinfo(arena+hblkhd)
          4401 MiB available memory on the node where the printing process lives
------------------
     ethr =  6.61E-11,  avg # of iterations =  7.6

     total cpu time spent up to now is      429.5 secs

     total energy              =    -771.71152163 Ry
     estimated scf accuracy    <       0.00000241 Ry

     iteration # 54     ecut=    90.00 Ry     beta= 0.05
     Davidson diagonalization with overlap

---- Real-time Memory Report at c_bands before calling an iterative solver
           625 MiB given to the printing process from OS
             0 MiB allocation reported by mallinfo(arena+hblkhd)
          4400 MiB available memory on the node where the printing process lives
------------------
     ethr =  6.61E-11,  avg # of iterations =  6.3

     total cpu time spent up to now is      438.8 secs

     total energy              =    -771.71152165 Ry
     estimated scf accuracy    <       0.00000061 Ry

     iteration # 55     ecut=    90.00 Ry     beta= 0.05
     Davidson diagonalization with overlap

---- Real-time Memory Report at c_bands before calling an iterative solver
           625 MiB given to the printing process from OS
             0 MiB allocation reported by mallinfo(arena+hblkhd)
          4328 MiB available memory on the node where the printing process lives
------------------
     ethr =  6.61E-11,  avg # of iterations =  1.0

     total cpu time spent up to now is      446.0 secs

     total energy              =    -771.71152165 Ry
     estimated scf accuracy    <       0.00000075 Ry

     iteration # 56     ecut=    90.00 Ry     beta= 0.05
     Davidson diagonalization with overlap

---- Real-time Memory Report at c_bands before calling an iterative solver
           625 MiB given to the printing process from OS
             0 MiB allocation reported by mallinfo(arena+hblkhd)
          4405 MiB available memory on the node where the printing process lives
------------------
     ethr =  6.61E-11,  avg # of iterations =  4.5

     total cpu time spent up to now is      454.4 secs

     End of self-consistent calculation

          k = 0.0000 0.0000 0.0000 ( 16599 PWs)   bands (ev):

   -31.2061 -16.5260 -16.5137 -11.8478 -11.2592 -11.2577  -8.5968  -7.5809
    -7.3013  -7.0406  -6.9846  -6.7174  -1.9313  -1.6598  -1.3485  -1.3477
    -1.3372  -1.3363   4.5636   4.5675   4.6892   4.8880   4.9239   4.9365
     5.8734   6.1494   6.7410   6.7415   6.8693   7.0248   7.0734   7.1859
     7.2547   7.2716   7.3124   7.3509   7.3564   7.6984   7.8495   7.8513
     7.8906   7.9377   7.9791   8.0339   8.2318   8.4015   8.4208   8.5190
     8.7013   9.5001   9.5008  11.9111  12.6019  12.7444  12.9166  14.0902
    14.7193  14.8396  15.0785  15.0827

     occupation numbers 
     1.0000   1.0000   1.0000   1.0000   1.0000   1.0000   1.0000   1.0000
     1.0000   1.0000   1.0000   1.0000   1.0000   1.0000   1.0000   1.0000
     1.0000   1.0000   1.0000   1.0000   1.0000   1.0000   1.0000   1.0000
     1.0000   1.0000   1.0000   1.0000   1.0000   1.0000   1.0000   1.0000
     1.0000   1.0000   1.0000   1.0000   1.0000   1.0000   1.0000   1.0001
     1.0001   1.0001   1.0001   1.0002   1.0009   1.0027   1.0030   1.0052
     1.0123   0.9538   0.9535  -0.0002  -0.0000  -0.0000  -0.0000  -0.0000
    -0.0000  -0.0000  -0.0000  -0.0000

          k = 0.0000 0.0000 0.0818 ( 16639 PWs)   bands (ev):

   -31.2061 -16.5268 -16.5129 -11.8479 -11.2592 -11.2577  -8.5962  -7.5817
    -7.3013  -7.0406  -6.9834  -6.7186  -1.9144  -1.6781  -1.3498  -1.3490
    -1.3359  -1.3351   4.5635   4.5674   4.7249   4.8679   4.9239   4.9365
     5.8739   6.1567   6.7411   6.7415   6.7741   7.0248   7.0733   7.1833
     7.2532   7.2698   7.3596   7.3669   7.3693   7.6996   7.7319   7.7539
     7.9791   8.0468   8.0714   8.1087   8.2309   8.3542   8.3739   8.5214
     8.6282   9.5018   9.5025  12.0477  12.6383  12.6577  12.8686  13.9776
    14.6833  14.8396  15.0346  15.2018

     occupation numbers 
     1.0000   1.0000   1.0000   1.0000   1.0000   1.0000   1.0000   1.0000
     1.0000   1.0000   1.0000   1.0000   1.0000   1.0000   1.0000   1.0000
     1.0000   1.0000   1.0000   1.0000   1.0000   1.0000   1.0000   1.0000
     1.0000   1.0000   1.0000   1.0000   1.0000   1.0000   1.0000   1.0000
     1.0000   1.0000   1.0000   1.0000   1.0000   1.0000   1.0000   1.0000
     1.0001   1.0002   1.0003   1.0004   1.0009   1.0020   1.0023   1.0053
     1.0089   0.9529   0.9525  -0.0001  -0.0000  -0.0000  -0.0000  -0.0000
    -0.0000  -0.0000  -0.0000  -0.0000

          k = 0.0000 0.0000-0.1637 ( 16610 PWs)   bands (ev):

   -31.2061 -16.5275 -16.5122 -11.8480 -11.2592 -11.2577  -8.5956  -7.5825
    -7.3013  -7.0406  -6.9821  -6.7199  -1.8945  -1.6994  -1.3508  -1.3500
    -1.3349  -1.3340   4.5634   4.5672   4.7949   4.8133   4.9240   4.9366
     5.8743   6.1696   6.6870   6.7412   6.7415   7.0248   7.0733   7.1807
     7.2518   7.2683   7.3691   7.3788   7.4137   7.6762   7.7008   7.7028
     7.9791   8.1938   8.2102   8.2142   8.2296   8.2511   8.2725   8.5254
     8.5266   9.5034   9.5042  12.3672  12.3711  12.7122  12.7874  13.9426
    14.4833  14.8396  14.9953  15.2658

     occupation numbers 
     1.0000   1.0000   1.0000   1.0000   1.0000   1.0000   1.0000   1.0000
     1.0000   1.0000   1.0000   1.0000   1.0000   1.0000   1.0000   1.0000
     1.0000   1.0000   1.0000   1.0000   1.0000   1.0000   1.0000   1.0000
     1.0000   1.0000   1.0000   1.0000   1.0000   1.0000   1.0000   1.0000
     1.0000   1.0000   1.0000   1.0000   1.0000   1.0000   1.0000   1.0000
     1.0001   1.0007   1.0008   1.0008   1.0009   1.0011   1.0012   1.0054
     1.0054   0.9521   0.9516  -0.0000  -0.0000  -0.0000  -0.0000  -0.0000
    -0.0000  -0.0000  -0.0000  -0.0000

          k = 0.0000 0.2500 0.0000 ( 16580 PWs)   bands (ev):

   -31.1985 -16.4610 -16.4495 -11.7197 -11.5999 -11.2485  -8.1956  -7.6687
    -7.2803  -7.1350  -7.1254  -6.9134  -1.9016  -1.6725  -1.3699  -1.3116
    -1.2294  -1.2158   4.0626   4.1702   4.7640   4.8135   4.9862   5.0274
     5.8036   5.8955   6.2459   6.2980   6.3399   6.4734   6.6707   6.9209
     6.9540   7.1302   7.1731   7.2387   7.5767   7.6106   7.7519   7.8954
     7.9384   7.9630   8.1850   8.2057   8.3438   8.5965   8.7088   9.0028
     9.1595   9.2501   9.4477  12.0806  13.1697  13.6358  14.1116  14.1355
    14.6974  15.0914  15.5342  15.6910

     occupation numbers 
     1.0000   1.0000   1.0000   1.0000   1.0000   1.0000   1.0000   1.0000
     1.0000   1.0000   1.0000   1.0000   1.0000   1.0000   1.0000   1.0000
     1.0000   1.0000   1.0000   1.0000   1.0000   1.0000   1.0000   1.0000
     1.0000   1.0000   1.0000   1.0000   1.0000   1.0000   1.0000   1.0000
     1.0000   1.0000   1.0000   1.0000   1.0000   1.0000   1.0000   1.0001
     1.0001   1.0001   1.0007   1.0008   1.0019   1.0077   1.0127   1.0312
     1.0352   1.0296   0.9792  -0.0000  -0.0000  -0.0000  -0.0000  -0.0000
    -0.0000  -0.0000  -0.0000  -0.0000

          k = 0.0000 0.2500 0.0818 ( 16603 PWs)   bands (ev):

   -31.1985 -16.4616 -16.4489 -11.7198 -11.5999 -11.2485  -8.1949  -7.6720
    -7.2651  -7.1549  -7.1191  -6.9125  -1.8922  -1.6826  -1.3667  -1.3149
    -1.2306  -1.2146   4.0774   4.1593   4.7635   4.8169   4.9865   5.0192
     5.7865   5.9751   6.2533   6.2903   6.3015   6.4724   6.5969   6.8492
     6.9922   7.0995   7.1778   7.3629   7.5786   7.6072   7.7650   7.8809
     7.9382   7.9526   8.2145   8.2593   8.3541   8.5807   8.6421   9.0227
     9.1588   9.2513   9.4009  12.1033  13.2165  13.6253  14.0489  14.1548
    14.6984  14.9294  15.4717  15.5960

     occupation numbers 
     1.0000   1.0000   1.0000   1.0000   1.0000   1.0000   1.0000   1.0000
     1.0000   1.0000   1.0000   1.0000   1.0000   1.0000   1.0000   1.0000
     1.0000   1.0000   1.0000   1.0000   1.0000   1.0000   1.0000   1.0000
     1.0000   1.0000   1.0000   1.0000   1.0000   1.0000   1.0000   1.0000
     1.0000   1.0000   1.0000   1.0000   1.0000   1.0000   1.0000   1.0001
     1.0001   1.0001   1.0008   1.0011   1.0020   1.0071   1.0095   1.0323
     1.0352   1.0295   0.9971  -0.0000  -0.0000  -0.0000  -0.0000  -0.0000
    -0.0000  -0.0000  -0.0000  -0.0000

          k = 0.0000 0.2500-0.1637 ( 16650 PWs)   bands (ev):

   -31.1985 -16.4622 -16.4483 -11.7199 -11.5999 -11.2485  -8.1943  -7.6752
    -7.2446  -7.1760  -7.1170  -6.9116  -1.8818  -1.6937  -1.3630  -1.3186
    -1.2317  -1.2135   4.0988   4.1420   4.7631   4.8206   4.9868   5.0101
     5.7838   6.1003   6.1914   6.2703   6.2729   6.4715   6.5375   6.8182
     7.0426   7.0496   7.1826   7.4531   7.5823   7.6036   7.7747   7.8682
     7.9381   7.9403   8.2442   8.3159   8.4111   8.5317   8.5630   9.0293
     9.1769   9.2525   9.3447  12.1262  13.2721  13.6070  14.0049  14.1509
    14.6995  14.8030  15.4191  15.5515

     occupation numbers 
     1.0000   1.0000   1.0000   1.0000   1.0000   1.0000   1.0000   1.0000
     1.0000   1.0000   1.0000   1.0000   1.0000   1.0000   1.0000   1.0000
     1.0000   1.0000   1.0000   1.0000   1.0000   1.0000   1.0000   1.0000
     1.0000   1.0000   1.0000   1.0000   1.0000   1.0000   1.0000   1.0000
     1.0000   1.0000   1.0000   1.0000   1.0000   1.0000   1.0000   1.0001
     1.0001   1.0001   1.0010   1.0016   1.0029   1.0056   1.0065   1.0326
     1.0347   1.0294   1.0134  -0.0000  -0.0000  -0.0000  -0.0000  -0.0000
    -0.0000  -0.0000  -0.0000  -0.0000

          k = 0.0000-0.5000 0.0000 ( 16582 PWs)   bands (ev):

   -31.1908 -16.3938 -16.3833 -11.8815 -11.5771 -11.2376  -7.8930  -7.7501
    -7.5138  -7.1178  -7.1054  -7.0994  -1.8550  -1.6370  -1.3917  -1.3185
    -1.1030  -1.0868   3.5070   3.6716   4.7897   4.9699   5.1241   5.1464
     5.6153   5.6496   5.7706   6.0345   6.0657   6.1214   6.2500   6.5954
     6.7377   6.8232   6.8622   7.1558   7.4959   7.6663   7.8917   7.9081
     7.9675   8.4065   8.4281   8.5240   8.6907   8.8470   8.9027   9.0318
     9.0762   9.0876   9.6120  11.3513  13.6130  14.2770  14.5823  15.2587
    15.4196  15.5832  15.6077  15.9631

     occupation numbers 
     1.0000   1.0000   1.0000   1.0000   1.0000   1.0000   1.0000   1.0000
     1.0000   1.0000   1.0000   1.0000   1.0000   1.0000   1.0000   1.0000
     1.0000   1.0000   1.0000   1.0000   1.0000   1.0000   1.0000   1.0000
     1.0000   1.0000   1.0000   1.0000   1.0000   1.0000   1.0000   1.0000
     1.0000   1.0000   1.0000   1.0000   1.0000   1.0000   1.0001   1.0001
     1.0001   1.0028   1.0032   1.0054   1.0118   1.0211   1.0249   1.0328
     1.0345   1.0349   0.8802  -0.0071  -0.0000  -0.0000  -0.0000  -0.0000
    -0.0000  -0.0000  -0.0000  -0.0000

          k = 0.0000-0.5000 0.0818 ( 16574 PWs)   bands (ev):

   -31.1908 -16.3943 -16.3828 -11.8815 -11.5772 -11.2376  -7.9012  -7.7497
    -7.4716  -7.2243  -7.1059  -7.0268  -1.8441  -1.6488  -1.3920  -1.3182
    -1.1042  -1.0856   3.5161   3.6630   4.7886   4.9666   5.1232   5.1454
     5.6197   5.7132   5.7718   5.9596   6.1138   6.1602   6.2623   6.3965
     6.7440   6.7670   7.0077   7.1475   7.5267   7.6597   7.8917   7.9130
     8.0188   8.4068   8.4241   8.5274   8.6641   8.8465   8.9081   9.0376
     9.0696   9.0757   9.5704  11.3720  13.6375  14.2203  14.5825  15.2569
    15.4248  15.4560  15.5906  15.9577

     occupation numbers 
     1.0000   1.0000   1.0000   1.0000   1.0000   1.0000   1.0000   1.0000
     1.0000   1.0000   1.0000   1.0000   1.0000   1.0000   1.0000   1.0000
     1.0000   1.0000   1.0000   1.0000   1.0000   1.0000   1.0000   1.0000
     1.0000   1.0000   1.0000   1.0000   1.0000   1.0000   1.0000   1.0000
     1.0000   1.0000   1.0000   1.0000   1.0000   1.0000   1.0001   1.0001
     1.0002   1.0028   1.0031   1.0055   1.0105   1.0210   1.0252   1.0330
     1.0343   1.0345   0.9107  -0.0064  -0.0000  -0.0000  -0.0000  -0.0000
    -0.0000  -0.0000  -0.0000  -0.0000

          k = 0.0000-0.5000-0.1637 ( 16592 PWs)   bands (ev):

   -31.1908 -16.3948 -16.3823 -11.8815 -11.5772 -11.2376  -7.9088  -7.7493
    -7.3968  -7.3205  -7.1063  -6.9977  -1.8318  -1.6621  -1.3924  -1.3179
    -1.1052  -1.0845   3.5264   3.6531   4.7875   4.9633   5.1223   5.1444
     5.6242   5.7730   5.8031   5.9257   6.1061   6.2186   6.2294   6.2762
     6.7100   6.7502   7.0755   7.1574   7.5516   7.6532   7.8917   7.9177
     8.0789   8.4071   8.4198   8.5335   8.6284   8.8461   8.9152   9.0440
     9.0498   9.0751   9.5279  11.3932  13.6619  14.1610  14.5826  15.2551
    15.4189  15.4301  15.5125  15.9521

     occupation numbers 
     1.0000   1.0000   1.0000   1.0000   1.0000   1.0000   1.0000   1.0000
     1.0000   1.0000   1.0000   1.0000   1.0000   1.0000   1.0000   1.0000
     1.0000   1.0000   1.0000   1.0000   1.0000   1.0000   1.0000   1.0000
     1.0000   1.0000   1.0000   1.0000   1.0000   1.0000   1.0000   1.0000
     1.0000   1.0000   1.0000   1.0000   1.0000   1.0000   1.0001   1.0001
     1.0003   1.0028   1.0030   1.0056   1.0090   1.0210   1.0257   1.0333
     1.0336   1.0345   0.9381  -0.0057  -0.0000  -0.0000  -0.0000  -0.0000
    -0.0000  -0.0000  -0.0000  -0.0000

          k = 0.2500 0.2500 0.0000 ( 16627 PWs)   bands (ev):

   -31.1910 -16.4032 -16.3922 -11.6007 -11.5920 -11.5556  -7.8184  -7.6120
    -7.3225  -7.1894  -7.1375  -6.9366  -1.8555  -1.8192  -1.7922  -1.6524
    -1.2787  -1.2197   3.5398   3.9583   4.5301   4.5356   4.8691   5.1351
     5.2974   5.3609   5.8485   6.0018   6.1611   6.5865   6.7177   6.7249
     6.8486   7.4045   7.4101   7.4502   7.7981   7.8742   7.8920   7.9365
     8.1328   8.2275   8.2892   8.3993   8.4275   8.4283   8.9653   9.0871
     9.4778  10.2264  10.3837  12.1479  13.1020  13.7461  13.9378  14.7310
    15.1429  15.2429  15.8171  15.9113

     occupation numbers 
     1.0000   1.0000   1.0000   1.0000   1.0000   1.0000   1.0000   1.0000
     1.0000   1.0000   1.0000   1.0000   1.0000   1.0000   1.0000   1.0000
     1.0000   1.0000   1.0000   1.0000   1.0000   1.0000   1.0000   1.0000
     1.0000   1.0000   1.0000   1.0000   1.0000   1.0000   1.0000   1.0000
     1.0000   1.0000   1.0000   1.0000   1.0000   1.0001   1.0001   1.0001
     1.0005   1.0009   1.0014   1.0027   1.0032   1.0032   1.0290   1.0349
     0.9653   0.1998   0.0731  -0.0000  -0.0000  -0.0000  -0.0000  -0.0000
    -0.0000  -0.0000  -0.0000  -0.0000

          k = 0.2500 0.2500 0.0818 ( 16616 PWs)   bands (ev):

   -31.1910 -16.4037 -16.3917 -11.6008 -11.5920 -11.5556  -7.8165  -7.6165
    -7.3225  -7.1826  -7.1375  -6.9407  -1.8535  -1.8168  -1.7947  -1.6548
    -1.2739  -1.2245   3.5557   3.9358   4.5300   4.5356   4.8712   5.1322
     5.2890   5.3712   5.8500   6.0694   6.1555   6.4970   6.5862   6.7245
     7.0357   7.3592   7.4732   7.4762   7.7874   7.8128   7.8860   7.9842
     8.1063   8.2188   8.2883   8.3962   8.4160   8.5207   8.8909   9.0588
     9.4757  10.2326  10.3804  12.1707  13.1243  13.7118  14.0118  14.6947
    15.1797  15.2580  15.5023  15.7458

     occupation numbers 
     1.0000   1.0000   1.0000   1.0000   1.0000   1.0000   1.0000   1.0000
     1.0000   1.0000   1.0000   1.0000   1.0000   1.0000   1.0000   1.0000
     1.0000   1.0000   1.0000   1.0000   1.0000   1.0000   1.0000   1.0000
     1.0000   1.0000   1.0000   1.0000   1.0000   1.0000   1.0000   1.0000
     1.0000   1.0000   1.0000   1.0000   1.0000   1.0000   1.0001   1.0002
     1.0004   1.0009   1.0014   1.0026   1.0030   1.0053   1.0241   1.0339
     0.9663   0.1938   0.0752  -0.0000  -0.0000  -0.0000  -0.0000  -0.0000
    -0.0000  -0.0000  -0.0000  -0.0000

          k = 0.2500 0.2500-0.1637 ( 16616 PWs)   bands (ev):

   -31.1910 -16.4042 -16.3912 -11.6008 -11.5920 -11.5556  -7.8146  -7.6210
    -7.3225  -7.1758  -7.1375  -6.9450  -1.8515  -1.8137  -1.7978  -1.6572
    -1.2679  -1.2305   3.5736   3.9115   4.5300   4.5356   4.8728   5.1304
     5.2819   5.3796   5.8515   6.1495   6.2455   6.2546   6.5838   6.7243
     7.1418   7.3422   7.5024   7.5160   7.7572   7.7725   7.8871   8.0120
     8.0825   8.2067   8.2876   8.3988   8.4301   8.6832   8.7013   9.0447
     9.4737  10.2390  10.3769  12.1929  13.1471  13.6780  14.1087  14.6270
    15.2254  15.3308  15.3945  15.4831

     occupation numbers 
     1.0000   1.0000   1.0000   1.0000   1.0000   1.0000   1.0000   1.0000
     1.0000   1.0000   1.0000   1.0000   1.0000   1.0000   1.0000   1.0000
     1.0000   1.0000   1.0000   1.0000   1.0000   1.0000   1.0000   1.0000
     1.0000   1.0000   1.0000   1.0000   1.0000   1.0000   1.0000   1.0000
     1.0000   1.0000   1.0000   1.0000   1.0000   1.0000   1.0001   1.0002
     1.0003   1.0008   1.0013   1.0027   1.0032   1.0114   1.0123   1.0334
     0.9673   0.1877   0.0774  -0.0000  -0.0000  -0.0000  -0.0000  -0.0000
    -0.0000  -0.0000  -0.0000  -0.0000

          k = 0.2500-0.5000 0.0000 ( 16672 PWs)   bands (ev):

   -31.1834 -16.3438 -16.3335 -11.8536 -11.5482 -11.4668  -7.7405  -7.3661
    -7.3377  -7.3333  -7.0354  -6.9675  -1.8708  -1.8157  -1.7685  -1.7318
    -1.6881  -1.5969   2.9410   3.4089   4.4315   4.5695   4.5735   4.8367
     4.9392   5.4036   5.9343   6.0420   6.0809   6.4220   6.5647   6.6634
     7.2170   7.3437   7.5065   7.5880   7.8510   7.8966   7.9656   8.0370
     8.2342   8.4967   8.5585   8.6606   8.7192   8.9502   8.9967   9.2432
     9.2784  10.7114  10.8685  11.6781  12.6724  13.5496  14.5428  14.8916
    15.0469  15.6347  15.8845  16.4018

     occupation numbers 
     1.0000   1.0000   1.0000   1.0000   1.0000   1.0000   1.0000   1.0000
     1.0000   1.0000   1.0000   1.0000   1.0000   1.0000   1.0000   1.0000
     1.0000   1.0000   1.0000   1.0000   1.0000   1.0000   1.0000   1.0000
     1.0000   1.0000   1.0000   1.0000   1.0000   1.0000   1.0000   1.0000
     1.0000   1.0000   1.0000   1.0000   1.0001   1.0001   1.0001   1.0002
     1.0009   1.0046   1.0064   1.0104   1.0133   1.0280   1.0309   1.0303
     1.0260  -0.0325  -0.0340  -0.0011  -0.0000  -0.0000  -0.0000  -0.0000
    -0.0000  -0.0000  -0.0000  -0.0000

          k = 0.2500-0.5000 0.0818 ( 16670 PWs)   bands (ev):

   -31.1834 -16.3443 -16.3330 -11.8536 -11.5482 -11.4668  -7.7454  -7.3659
    -7.3379  -7.2989  -7.1072  -6.9251  -1.8636  -1.8166  -1.7676  -1.7382
    -1.6843  -1.6023   2.9516   3.3942   4.4348   4.5578   4.5804   4.8543
     4.9281   5.4100   5.9198   6.0673   6.0843   6.4105   6.5448   6.6150
     7.3114   7.3903   7.5210   7.5668   7.8071   7.9300   7.9300   8.0330
     8.2631   8.4895   8.5556   8.6290   8.7211   8.9112   8.9982   9.2412
     9.2718  10.7148  10.8659  11.6926  12.7666  13.5192  14.5695  14.7835
    15.0723  15.4973  15.7691  16.5880

     occupation numbers 
     1.0000   1.0000   1.0000   1.0000   1.0000   1.0000   1.0000   1.0000
     1.0000   1.0000   1.0000   1.0000   1.0000   1.0000   1.0000   1.0000
     1.0000   1.0000   1.0000   1.0000   1.0000   1.0000   1.0000   1.0000
     1.0000   1.0000   1.0000   1.0000   1.0000   1.0000   1.0000   1.0000
     1.0000   1.0000   1.0000   1.0000   1.0000   1.0001   1.0001   1.0002
     1.0011   1.0045   1.0063   1.0090   1.0134   1.0254   1.0310   1.0305
     1.0270  -0.0328  -0.0341  -0.0010  -0.0000  -0.0000  -0.0000  -0.0000
    -0.0000  -0.0000  -0.0000  -0.0000

          k = 0.2500-0.5000-0.1637 ( 16604 PWs)   bands (ev):

   -31.1834 -16.3447 -16.3326 -11.8536 -11.5482 -11.4668  -7.7501  -7.3657
    -7.3380  -7.2224  -7.2018  -6.9023  -1.8556  -1.8175  -1.7668  -1.7454
    -1.6803  -1.6081   2.9629   3.3789   4.4386   4.5430   4.5919   4.8703
     4.9165   5.4163   5.9079   6.0881   6.0925   6.3946   6.5253   6.5773
     7.4023   7.4722   7.5083   7.5413   7.7801   7.8809   7.9476   8.0440
     8.2892   8.4822   8.5526   8.5792   8.7231   8.8803   8.9996   9.2393
     9.2664  10.7183  10.8633  11.7074  12.8735  13.4764  14.5231  14.8086
    15.1017  15.3776  15.5722  16.4863

     occupation numbers 
     1.0000   1.0000   1.0000   1.0000   1.0000   1.0000   1.0000   1.0000
     1.0000   1.0000   1.0000   1.0000   1.0000   1.0000   1.0000   1.0000
     1.0000   1.0000   1.0000   1.0000   1.0000   1.0000   1.0000   1.0000
     1.0000   1.0000   1.0000   1.0000   1.0000   1.0000   1.0000   1.0000
     1.0000   1.0000   1.0000   1.0000   1.0000   1.0001   1.0001   1.0002
     1.0014   1.0043   1.0062   1.0071   1.0135   1.0233   1.0311   1.0307
     1.0277  -0.0330  -0.0342  -0.0009  -0.0000  -0.0000  -0.0000  -0.0000
    -0.0000  -0.0000  -0.0000  -0.0000

          k =-0.5000-0.5000 0.0000 ( 16592 PWs)   bands (ev):

   -31.1760 -16.2927 -16.2825 -11.8257 -11.8119 -11.3453  -7.5803  -7.5754
    -7.0752  -7.0277  -7.0062  -6.8218  -2.2317  -2.2279  -2.2080  -2.2045
    -1.8375  -1.6249   2.2892   2.8918   4.0387   4.2172   4.2630   4.8485
     4.8751   5.6807   5.6887   5.9921   6.0182   6.2396   6.7834   6.7837
     7.3423   7.7760   7.9278   7.9294   8.0956   8.1569   8.4630   8.6893
     8.7165   8.7389   8.7439   8.8102   8.8178   8.8244   8.8419   9.5987
     9.5993  11.7747  11.8404  12.1086  12.1153  12.5828  13.8664  14.8923
    14.9043  15.0696  15.4973  15.5157

     occupation numbers 
     1.0000   1.0000   1.0000   1.0000   1.0000   1.0000   1.0000   1.0000
     1.0000   1.0000   1.0000   1.0000   1.0000   1.0000   1.0000   1.0000
     1.0000   1.0000   1.0000   1.0000   1.0000   1.0000   1.0000   1.0000
     1.0000   1.0000   1.0000   1.0000   1.0000   1.0000   1.0000   1.0000
     1.0000   1.0000   1.0001   1.0001   1.0004   1.0006   1.0039   1.0117
     1.0131   1.0144   1.0146   1.0187   1.0192   1.0196   1.0207   0.8904
     0.8899  -0.0005  -0.0003  -0.0000  -0.0000  -0.0000  -0.0000  -0.0000
    -0.0000  -0.0000  -0.0000  -0.0000

          k =-0.5000-0.5000 0.0818 ( 16676 PWs)   bands (ev):

   -31.1760 -16.2931 -16.2821 -11.8257 -11.8119 -11.3453  -7.5803  -7.5754
    -7.0751  -7.0277  -7.0062  -6.8219  -2.2334  -2.2297  -2.2063  -2.2026
    -1.8206  -1.6434   2.2976   2.8791   4.0547   4.2172   4.2630   4.8337
     4.8791   5.6828   5.6908   5.9909   6.0171   6.2109   6.7823   6.7826
     7.4876   7.7764   7.9321   7.9333   8.0956   8.1569   8.4415   8.4628
     8.6723   8.6893   8.6944   8.8081   8.8565   8.8639   8.9966   9.5980
     9.5987  11.7749  11.8404  12.1160  12.1220  12.7200  13.9382  14.6913
    14.9740  14.9906  15.2455  15.8198

     occupation numbers 
     1.0000   1.0000   1.0000   1.0000   1.0000   1.0000   1.0000   1.0000
     1.0000   1.0000   1.0000   1.0000   1.0000   1.0000   1.0000   1.0000
     1.0000   1.0000   1.0000   1.0000   1.0000   1.0000   1.0000   1.0000
     1.0000   1.0000   1.0000   1.0000   1.0000   1.0000   1.0000   1.0000
     1.0000   1.0000   1.0001   1.0001   1.0004   1.0006   1.0034   1.0039
     1.0109   1.0117   1.0120   1.0185   1.0217   1.0222   1.0309   0.8909
     0.8904  -0.0005  -0.0003  -0.0000  -0.0000  -0.0000  -0.0000  -0.0000
    -0.0000  -0.0000  -0.0000  -0.0000

          k =-0.5000-0.5000-0.1637 ( 16672 PWs)   bands (ev):

   -31.1760 -16.2934 -16.2818 -11.8257 -11.8119 -11.3454  -7.5804  -7.5754
    -7.0751  -7.0276  -7.0062  -6.8219  -2.2349  -2.2313  -2.2048  -2.2010
    -1.7991  -1.6666   2.3063   2.8660   4.0713   4.2172   4.2630   4.8184
     4.8831   5.6849   5.6928   5.9896   6.0160   6.1852   6.7812   6.7815
     7.7088   7.7768   7.9365   7.9372   8.0956   8.1569   8.1587   8.4626
     8.6413   8.6643   8.6893   8.8060   8.8819   8.8888   9.0536   9.5973
     9.5981  11.7751  11.8404  12.1233  12.1287  12.8814  14.0294  14.4114
    15.0169  15.0853  15.1104  16.0041

     occupation numbers 
     1.0000   1.0000   1.0000   1.0000   1.0000   1.0000   1.0000   1.0000
     1.0000   1.0000   1.0000   1.0000   1.0000   1.0000   1.0000   1.0000
     1.0000   1.0000   1.0000   1.0000   1.0000   1.0000   1.0000   1.0000
     1.0000   1.0000   1.0000   1.0000   1.0000   1.0000   1.0000   1.0000
     1.0000   1.0000   1.0001   1.0001   1.0004   1.0006   1.0006   1.0039
     1.0095   1.0105   1.0117   1.0184   1.0234   1.0239   1.0337   0.8914
     0.8908  -0.0005  -0.0003  -0.0000  -0.0000  -0.0000  -0.0000  -0.0000
    -0.0000  -0.0000  -0.0000  -0.0000

          k = 0.2500 0.0000 0.0000 ( 16580 PWs)   bands (ev):

   -31.1986 -16.4609 -16.4494 -11.7216 -11.5923 -11.2470  -8.2024  -7.6777
    -7.2884  -7.1265  -7.1223  -6.9127  -1.9031  -1.6737  -1.3685  -1.3105
    -1.2302  -1.2166   4.0658   4.1784   4.7600   4.8131   5.0024   5.0237
     5.8203   5.8986   6.2485   6.3095   6.3383   6.4773   6.6686   6.9492
     6.9692   7.1419   7.1643   7.2335   7.5786   7.5960   7.7402   7.8867
     7.9385   7.9595   8.1617   8.1971   8.3305   8.5881   8.6847   8.9986
     9.1586   9.2490   9.4511  12.0799  13.1749  13.6407  14.1053  14.1240
    14.6797  15.1164  15.5286  15.6928

     occupation numbers 
     1.0000   1.0000   1.0000   1.0000   1.0000   1.0000   1.0000   1.0000
     1.0000   1.0000   1.0000   1.0000   1.0000   1.0000   1.0000   1.0000
     1.0000   1.0000   1.0000   1.0000   1.0000   1.0000   1.0000   1.0000
     1.0000   1.0000   1.0000   1.0000   1.0000   1.0000   1.0000   1.0000
     1.0000   1.0000   1.0000   1.0000   1.0000   1.0000   1.0000   1.0001
     1.0001   1.0001   1.0006   1.0007   1.0018   1.0074   1.0115   1.0310
     1.0352   1.0297   0.9777  -0.0001  -0.0000  -0.0000  -0.0000  -0.0000
    -0.0000  -0.0000  -0.0000  -0.0000

          k = 0.2500 0.0000-0.0818 ( 16603 PWs)   bands (ev):

   -31.1986 -16.4615 -16.4488 -11.7217 -11.5923 -11.2470  -8.2018  -7.6810
    -7.2737  -7.1510  -7.1111  -6.9118  -1.8937  -1.6839  -1.3652  -1.3138
    -1.2314  -1.2154   4.0805   4.1674   4.7595   4.8163   5.0027   5.0176
     5.7961   5.9827   6.2572   6.3006   6.3016   6.4758   6.5934   6.8761
     7.0062   7.1089   7.1703   7.3633   7.5813   7.5903   7.7513   7.8748
     7.9382   7.9499   8.1889   8.2478   8.3420   8.5738   8.6220   9.0183
     9.1584   9.2502   9.4019  12.1031  13.2223  13.6292  14.0409  14.1457
    14.6807  14.9467  15.4695  15.6065

     occupation numbers 
     1.0000   1.0000   1.0000   1.0000   1.0000   1.0000   1.0000   1.0000
     1.0000   1.0000   1.0000   1.0000   1.0000   1.0000   1.0000   1.0000
     1.0000   1.0000   1.0000   1.0000   1.0000   1.0000   1.0000   1.0000
     1.0000   1.0000   1.0000   1.0000   1.0000   1.0000   1.0000   1.0000
     1.0000   1.0000   1.0000   1.0000   1.0000   1.0000   1.0000   1.0001
     1.0001   1.0001   1.0007   1.0010   1.0019   1.0069   1.0087   1.0321
     1.0352   1.0296   0.9968  -0.0000  -0.0000  -0.0000  -0.0000  -0.0000
    -0.0000  -0.0000  -0.0000  -0.0000

          k = 0.2500 0.0000 0.1637 ( 16650 PWs)   bands (ev):

   -31.1986 -16.4621 -16.4482 -11.7217 -11.5923 -11.2470  -8.2011  -7.6842
    -7.2547  -7.1719  -7.1076  -6.9108  -1.8832  -1.6950  -1.3615  -1.3175
    -1.2324  -1.2143   4.1011   4.1505   4.7591   4.8196   5.0030   5.0105
     5.7913   6.1057   6.1951   6.2786   6.2788   6.4743   6.5346   6.8448
     7.0439   7.0687   7.1764   7.4563   7.5844   7.5860   7.7576   7.8645
     7.9381   7.9388   8.2159   8.2994   8.3993   8.5180   8.5579   9.0255
     9.1781   9.2513   9.3418  12.1266  13.2792  13.6093  13.9975  14.1424
    14.6818  14.8165  15.4192  15.5642

     occupation numbers 
     1.0000   1.0000   1.0000   1.0000   1.0000   1.0000   1.0000   1.0000
     1.0000   1.0000   1.0000   1.0000   1.0000   1.0000   1.0000   1.0000
     1.0000   1.0000   1.0000   1.0000   1.0000   1.0000   1.0000   1.0000
     1.0000   1.0000   1.0000   1.0000   1.0000   1.0000   1.0000   1.0000
     1.0000   1.0000   1.0000   1.0000   1.0000   1.0000   1.0000   1.0001
     1.0001   1.0001   1.0008   1.0015   1.0027   1.0052   1.0064   1.0324
     1.0347   1.0295   1.0140  -0.0000  -0.0000  -0.0000  -0.0000  -0.0000
    -0.0000  -0.0000  -0.0000  -0.0000

          k =-0.5000 0.0000 0.0000 ( 16582 PWs)   bands (ev):

   -31.1910 -16.3936 -16.3832 -11.8677 -11.5813 -11.2363  -7.9016  -7.7557
    -7.5252  -7.1299  -7.0976  -7.0897  -1.8595  -1.6412  -1.3884  -1.3155
    -1.1037  -1.0875   3.5195   3.6908   4.7882   4.9690   5.1388   5.1467
     5.6212   5.6595   5.7794   6.0292   6.0924   6.1249   6.2663   6.6063
     6.7339   6.8338   6.8562   7.1485   7.4950   7.6434   7.8859   7.8917
     7.9624   8.3912   8.4065   8.5206   8.6671   8.8441   8.9031   9.0125
     9.0750   9.0827   9.5963  11.3555  13.6123  14.3092  14.5513  15.2702
    15.4461  15.5763  15.5979  15.9752

     occupation numbers 
     1.0000   1.0000   1.0000   1.0000   1.0000   1.0000   1.0000   1.0000
     1.0000   1.0000   1.0000   1.0000   1.0000   1.0000   1.0000   1.0000
     1.0000   1.0000   1.0000   1.0000   1.0000   1.0000   1.0000   1.0000
     1.0000   1.0000   1.0000   1.0000   1.0000   1.0000   1.0000   1.0000
     1.0000   1.0000   1.0000   1.0000   1.0000   1.0000   1.0001   1.0001
     1.0001   1.0026   1.0028   1.0053   1.0106   1.0209   1.0249   1.0318
     1.0345   1.0347   0.8922  -0.0069  -0.0000  -0.0000  -0.0000  -0.0000
    -0.0000  -0.0000  -0.0000  -0.0000

          k =-0.5000 0.0000-0.0818 ( 16574 PWs)   bands (ev):

   -31.1910 -16.3941 -16.3826 -11.8677 -11.5814 -11.2363  -7.9100  -7.7553
    -7.4839  -7.2292  -7.0901  -7.0312  -1.8484  -1.6533  -1.3889  -1.3151
    -1.1049  -1.0863   3.5285   3.6823   4.7869   4.9662   5.1379   5.1456
     5.6264   5.7243   5.7806   5.9670   6.1159   6.1758   6.2789   6.3978
     6.7416   6.7750   7.0125   7.1373   7.5275   7.6357   7.8913   7.8917
[...]
     1.0349   1.0353   0.9643  -0.0035  -0.0000  -0.0000  -0.0000  -0.0000
    -0.0000  -0.0000  -0.0000  -0.0000

          k =-0.5050 0.0000-0.0819 ( 16294 PWs)   bands (ev):

   -30.9290 -15.9946 -15.9879 -11.7674 -11.4284 -11.0021  -7.9443  -7.7837
    -7.3168  -7.0335  -7.0286  -6.7779  -1.4300  -1.2968  -1.1098  -1.0215
    -0.6881  -0.6761   3.4463   3.6030   4.9479   5.0775   5.1388   5.1653
     5.6880   5.7873   5.8785   6.1420   6.3005   6.3854   6.4932   6.5779
     6.9408   7.0645   7.1848   7.3088   7.6761   7.8389   7.9375   8.2286
     8.3302   8.5610   8.5984   8.6055   8.9126   9.0110   9.2126   9.2558
     9.4290   9.5270   9.8215  11.8833  14.3509  14.4593  14.8019  15.5127
    15.5741  15.7528  15.9172  16.2151

     occupation numbers 
     1.0000   1.0000   1.0000   1.0000   1.0000   1.0000   1.0000   1.0000
     1.0000   1.0000   1.0000   1.0000   1.0000   1.0000   1.0000   1.0000
     1.0000   1.0000   1.0000   1.0000   1.0000   1.0000   1.0000   1.0000
     1.0000   1.0000   1.0000   1.0000   1.0000   1.0000   1.0000   1.0000
     1.0000   1.0000   1.0000   1.0000   1.0000   1.0000   1.0000   1.0001
     1.0001   1.0007   1.0009   1.0009   1.0058   1.0094   1.0206   1.0235
     1.0338   1.0353   0.9786  -0.0030  -0.0000  -0.0000  -0.0000  -0.0000
    -0.0000  -0.0000  -0.0000  -0.0000

          k =-0.5050 0.0000 0.1637 ( 16332 PWs)   bands (ev):

   -30.9290 -15.9955 -15.9871 -11.7674 -11.4284 -11.0021  -7.9482  -7.7835
    -7.2752  -7.0938  -7.0289  -6.7553  -1.4089  -1.3190  -1.1105  -1.0209
    -0.6898  -0.6744   3.4503   3.5994   4.9476   5.0767   5.1381   5.1649
     5.6914   5.7881   5.9436   6.1330   6.3076   6.3769   6.4577   6.5359
     6.8609   7.0778   7.1778   7.3711   7.6602   7.9166   7.9461   8.3080
     8.3301   8.4952   8.5617   8.5980   8.9269   9.0103   9.2457   9.2605
     9.3843   9.5266   9.7904  11.9119  14.2516  14.4858  14.8020  15.5003
    15.5927  15.7663  15.8692  16.2147

     occupation numbers 
     1.0000   1.0000   1.0000   1.0000   1.0000   1.0000   1.0000   1.0000
     1.0000   1.0000   1.0000   1.0000   1.0000   1.0000   1.0000   1.0000
     1.0000   1.0000   1.0000   1.0000   1.0000   1.0000   1.0000   1.0000
     1.0000   1.0000   1.0000   1.0000   1.0000   1.0000   1.0000   1.0000
     1.0000   1.0000   1.0000   1.0000   1.0000   1.0000   1.0000   1.0001
     1.0001   1.0004   1.0007   1.0009   1.0063   1.0093   1.0228   1.0238
     1.0317   1.0353   0.9911  -0.0025  -0.0000  -0.0000  -0.0000  -0.0000
    -0.0000  -0.0000  -0.0000  -0.0000

          k =-0.5050 0.2525 0.0000 ( 16272 PWs)   bands (ev):

   -30.9202 -15.9370 -15.9325 -11.7321 -11.3842 -11.2954  -7.7797  -7.3208
    -7.3095  -7.1691  -6.8848  -6.6710  -1.4906  -1.4854  -1.4382  -1.3840
    -1.2847  -1.2191   2.8471   3.3410   4.3961   4.5486   4.5683   4.9483
     5.1007   5.3908   5.9322   6.1485   6.2453   6.5281   6.7391   6.9536
     7.3151   7.4840   7.6766   7.7635   7.9410   8.2479   8.2703   8.4008
     8.4674   8.6742   8.7482   8.8842   8.9988   9.0698   9.1903   9.7292
     9.7618  10.9880  11.1635  12.3294  13.1404  13.9240  14.9089  15.4146
    15.4402  16.1972  16.2974  16.5747

     occupation numbers 
     1.0000   1.0000   1.0000   1.0000   1.0000   1.0000   1.0000   1.0000
     1.0000   1.0000   1.0000   1.0000   1.0000   1.0000   1.0000   1.0000
     1.0000   1.0000   1.0000   1.0000   1.0000   1.0000   1.0000   1.0000
     1.0000   1.0000   1.0000   1.0000   1.0000   1.0000   1.0000   1.0000
     1.0000   1.0000   1.0000   1.0000   1.0000   1.0001   1.0001   1.0002
     1.0004   1.0015   1.0023   1.0050   1.0089   1.0121   1.0191   1.0104
     1.0009  -0.0200  -0.0354  -0.0001  -0.0000  -0.0000  -0.0000  -0.0000
    -0.0000  -0.0000  -0.0000  -0.0000

          k =-0.5050 0.2525-0.0819 ( 16284 PWs)   bands (ev):

   -30.9202 -15.9380 -15.9315 -11.7321 -11.3842 -11.2954  -7.7821  -7.3207
    -7.3096  -7.1452  -6.9239  -6.6534  -1.4870  -1.4797  -1.4367  -1.3943
    -1.2791  -1.2264   2.8538   3.3322   4.3976   4.5421   4.5771   4.9394
     5.1086   5.3971   5.9279   6.1465   6.2784   6.4816   6.7299   6.8914
     7.4606   7.5197   7.6815   7.7379   7.9344   8.2000   8.2743   8.4052
     8.5101   8.6680   8.7474   8.8238   8.8852   9.1537   9.1926   9.7279
     9.7585  10.9910  11.1617  12.3497  13.2755  13.8360  14.7912  15.4346
    15.4755  15.9877  16.2554  16.7631

     occupation numbers 
     1.0000   1.0000   1.0000   1.0000   1.0000   1.0000   1.0000   1.0000
     1.0000   1.0000   1.0000   1.0000   1.0000   1.0000   1.0000   1.0000
     1.0000   1.0000   1.0000   1.0000   1.0000   1.0000   1.0000   1.0000
     1.0000   1.0000   1.0000   1.0000   1.0000   1.0000   1.0000   1.0000
     1.0000   1.0000   1.0000   1.0000   1.0000   1.0000   1.0001   1.0002
     1.0005   1.0014   1.0023   1.0036   1.0050   1.0168   1.0193   1.0107
     1.0020  -0.0206  -0.0354  -0.0001  -0.0000  -0.0000  -0.0000  -0.0000
    -0.0000  -0.0000  -0.0000  -0.0000

          k =-0.5050 0.2525 0.1637 ( 16288 PWs)   bands (ev):

   -30.9202 -15.9387 -15.9308 -11.7321 -11.3842 -11.2954  -7.7844  -7.3205
    -7.3097  -7.1122  -6.9688  -6.6390  -1.4885  -1.4649  -1.4354  -1.4083
    -1.2716  -1.2356   2.8607   3.3231   4.3993   4.5357   4.5862   4.9301
     5.1164   5.4033   5.9237   6.1445   6.3434   6.4022   6.7211   6.8538
     7.5685   7.6247   7.6564   7.6981   7.9288   8.1557   8.2781   8.4113
     8.5832   8.6531   8.6618   8.7466   8.8861   9.1858   9.1949   9.7267
     9.7554  10.9939  11.1599  12.3707  13.5273  13.6305  14.6739  15.5188
    15.5536  15.8420  16.0191  16.9041

     occupation numbers 
     1.0000   1.0000   1.0000   1.0000   1.0000   1.0000   1.0000   1.0000
     1.0000   1.0000   1.0000   1.0000   1.0000   1.0000   1.0000   1.0000
     1.0000   1.0000   1.0000   1.0000   1.0000   1.0000   1.0000   1.0000
     1.0000   1.0000   1.0000   1.0000   1.0000   1.0000   1.0000   1.0000
     1.0000   1.0000   1.0000   1.0000   1.0000   1.0000   1.0001   1.0002
     1.0008   1.0013   1.0014   1.0023   1.0051   1.0189   1.0194   1.0110
     1.0029  -0.0211  -0.0354  -0.0001  -0.0000  -0.0000  -0.0000  -0.0000
    -0.0000  -0.0000  -0.0000  -0.0000

     the Fermi energy is    10.3374 ev

!    total energy              =    -771.72484591 Ry
     estimated scf accuracy    <          8.3E-11 Ry
     smearing contrib. (-TS)   =       0.01149678 Ry
     internal energy E=F+TS    =    -771.73634269 Ry

     The total energy is F=E-TS. E is the sum of the following terms:
     one-electron contribution =    -362.26491270 Ry
     hartree contribution      =     271.70300253 Ry
     xc contribution           =    -234.61203854 Ry
     ewald contribution        =    -446.56239398 Ry

     convergence has been achieved in 111 iterations

     Forces acting on atoms (cartesian axes, Ry/au):

     atom    1 type  1   force =     0.00000000    0.00000000    0.00000000
     atom    2 type  2   force =     0.00000000    0.00000000    0.00036184
     atom    3 type  2   force =     0.00000000    0.00000000   -0.00036184
     atom    4 type  3   force =     0.00000000    0.00000000    0.00000000
     atom    5 type  3   force =     0.00000000    0.00000000    0.00022801
     atom    6 type  3   force =     0.00000000    0.00000000   -0.00022801
     atom    7 type  4   force =     0.00000000    0.00000000   -0.00030282
     atom    8 type  4   force =     0.00000000    0.00000000    0.00030282
     atom    9 type  4   force =     0.00000000    0.00000000   -0.00038221
     atom   10 type  4   force =     0.00000000    0.00000000    0.00038221
     atom   11 type  4   force =     0.00000000    0.00000000    0.00044338
     atom   12 type  4   force =     0.00000000    0.00000000   -0.00044338
     The non-local contrib.  to forces
     atom    1 type  1   force =     0.00000000    0.00000000    0.00000000
     atom    2 type  2   force =     0.00000000    0.00000000   -0.01311654
     atom    3 type  2   force =     0.00000000    0.00000000    0.01311654
     atom    4 type  3   force =     0.00000000    0.00000000    0.00000000
     atom    5 type  3   force =     0.00000000    0.00000000   -0.03481978
     atom    6 type  3   force =     0.00000000    0.00000000    0.03481978
     atom    7 type  4   force =     0.00000000    0.00000000    0.06431611
     atom    8 type  4   force =     0.00000000    0.00000000   -0.06431611
     atom    9 type  4   force =     0.00000000    0.00000000    0.06400033
     atom   10 type  4   force =     0.00000000    0.00000000   -0.06400033
     atom   11 type  4   force =     0.00000000    0.00000000   -0.66329064
     atom   12 type  4   force =     0.00000000    0.00000000    0.66329064
     The ionic contribution  to forces
     atom    1 type  1   force =    -0.00000000    0.00000000    0.00000000
     atom    2 type  2   force =    -0.00000000    0.00000000  -22.83950775
     atom    3 type  2   force =    -0.00000000    0.00000000   22.83950775
     atom    4 type  3   force =     0.00000000   -0.00000000   -0.00000000
     atom    5 type  3   force =     0.00000000   -0.00000000  -20.02683552
     atom    6 type  3   force =     0.00000000   -0.00000000   20.02683552
     atom    7 type  4   force =    -0.00000000   -0.00000000  -10.04336341
     atom    8 type  4   force =    -0.00000000   -0.00000000   10.04336341
     atom    9 type  4   force =     0.00000000    0.00000000  -10.04183922
     atom   10 type  4   force =     0.00000000    0.00000000   10.04183922
     atom   11 type  4   force =     0.00000000   -0.00000000   -6.11115979
     atom   12 type  4   force =     0.00000000   -0.00000000    6.11115979
     The local contribution  to forces
     atom    1 type  1   force =    -0.00000000    0.00000000    0.00000000
     atom    2 type  2   force =    -0.00000000    0.00000000   22.85592173
     atom    3 type  2   force =    -0.00000000    0.00000000  -22.85592173
     atom    4 type  3   force =    -0.00000000   -0.00000000   -0.00000000
     atom    5 type  3   force =     0.00000000    0.00000000   20.05160461
     atom    6 type  3   force =    -0.00000000    0.00000000  -20.05160461
     atom    7 type  4   force =    -0.00000000    0.00000000    9.97869740
     atom    8 type  4   force =    -0.00000000   -0.00000000   -9.97869740
     atom    9 type  4   force =    -0.00000000    0.00000000    9.97740560
     atom   10 type  4   force =    -0.00000000    0.00000000   -9.97740560
     atom   11 type  4   force =    -0.00000000    0.00000000    6.76938248
     atom   12 type  4   force =     0.00000000    0.00000000   -6.76938248
     The core correction contribution to forces
     atom    1 type  1   force =     0.00000000   -0.00000000   -0.00000000
     atom    2 type  2   force =     0.00000000   -0.00000000   -0.00293576
     atom    3 type  2   force =     0.00000000   -0.00000000    0.00293576
     atom    4 type  3   force =    -0.00000000    0.00000000    0.00000000
     atom    5 type  3   force =     0.00000000   -0.00000000    0.01027860
     atom    6 type  3   force =    -0.00000000   -0.00000000   -0.01027860
     atom    7 type  4   force =    -0.00000000    0.00000000    0.00004707
     atom    8 type  4   force =    -0.00000000    0.00000000   -0.00004707
     atom    9 type  4   force =     0.00000000    0.00000000    0.00005107
     atom   10 type  4   force =    -0.00000000    0.00000000   -0.00005107
     atom   11 type  4   force =    -0.00000000    0.00000000    0.00551119
     atom   12 type  4   force =    -0.00000000    0.00000000   -0.00551119
     The Hubbard contrib.    to forces
     atom    1 type  1   force =     0.00000000    0.00000000    0.00000000
     atom    2 type  2   force =     0.00000000    0.00000000    0.00000000
     atom    3 type  2   force =     0.00000000    0.00000000    0.00000000
     atom    4 type  3   force =     0.00000000    0.00000000    0.00000000
     atom    5 type  3   force =     0.00000000    0.00000000    0.00000000
     atom    6 type  3   force =     0.00000000    0.00000000    0.00000000
     atom    7 type  4   force =     0.00000000    0.00000000    0.00000000
     atom    8 type  4   force =     0.00000000    0.00000000    0.00000000
     atom    9 type  4   force =     0.00000000    0.00000000    0.00000000
     atom   10 type  4   force =     0.00000000    0.00000000    0.00000000
     atom   11 type  4   force =     0.00000000    0.00000000    0.00000000
     atom   12 type  4   force =     0.00000000    0.00000000    0.00000000
     The SCF correction term to forces
     atom    1 type  1   force =    -0.00000000    0.00000000   -0.00000000
     atom    2 type  2   force =    -0.00000000   -0.00000000    0.00000016
     atom    3 type  2   force =     0.00000000    0.00000000   -0.00000016
     atom    4 type  3   force =     0.00000000    0.00000000   -0.00000000
     atom    5 type  3   force =    -0.00000000    0.00000000    0.00000011
     atom    6 type  3   force =    -0.00000000   -0.00000000   -0.00000011
     atom    7 type  4   force =     0.00000000   -0.00000000    0.00000000
     atom    8 type  4   force =     0.00000000    0.00000000   -0.00000000
     atom    9 type  4   force =    -0.00000000   -0.00000000    0.00000001
     atom   10 type  4   force =    -0.00000000    0.00000000   -0.00000001
     atom   11 type  4   force =     0.00000000    0.00000000    0.00000013
     atom   12 type  4   force =     0.00000000   -0.00000000   -0.00000013

     Total force =     0.001111     Total SCF correction =     0.000000


     Computing stress (Cartesian axis) and pressure

          total   stress  (Ry/bohr**3)                   (kbar)     P=        0.31
   0.00000186   0.00000000   0.00000000            0.27        0.00        0.00
   0.00000000   0.00000157   0.00000000            0.00        0.23        0.00
   0.00000000   0.00000000   0.00000283            0.00        0.00        0.42

     kinetic stress (kbar)  19512.23      0.00      0.00
                                0.00  19512.22      0.00
                                0.00      0.00  19576.05

     local   stress (kbar) -24284.89      0.00      0.00
                                0.00 -24282.08      0.00
                                0.00      0.00  22162.32

     nonloc. stress (kbar)   2960.83      0.00      0.00
                                0.00   2960.83      0.00
                                0.00      0.00   3005.94

     hartree stress (kbar)  19191.35     -0.00      0.00
                               -0.00  19190.35     -0.00
                                0.00     -0.00  -2997.01

     exc-cor stress (kbar)   8498.89      0.00      0.00
                                0.00   8498.89      0.00
                                0.00      0.00   8498.89

     corecor stress (kbar) -14610.20     -0.00      0.00
                               -0.00 -14610.20      0.00
                                0.00      0.00 -14626.34

     ewald   stress (kbar) -11267.93     -0.00      0.00
                               -0.00 -11269.78     -0.00
                                0.00     -0.00 -35619.44

     hubbard stress (kbar)      0.00      0.00      0.00
                                0.00      0.00      0.00
                                0.00      0.00      0.00

     DFT-D   stress (kbar)      0.00      0.00      0.00
                                0.00      0.00      0.00
                                0.00      0.00      0.00

     XDM     stress (kbar)      0.00      0.00      0.00
                                0.00      0.00      0.00
                                0.00      0.00      0.00

     dft-nl  stress (kbar)      0.00      0.00      0.00
                                0.00      0.00      0.00
                                0.00      0.00      0.00

     TS-vdW  stress (kbar)      0.00      0.00      0.00
                                0.00      0.00      0.00
                                0.00      0.00      0.00

     MDB     stress (kbar)      0.00      0.00      0.00
                                0.00      0.00      0.00
                                0.00      0.00      0.00

     3D-RISM stress (kbar)      0.00      0.00      0.00
                                0.00      0.00      0.00
                                0.00      0.00      0.00


     Writing all to output data dir ./YBCO.vc-relax/YBCO.vc-relax.save/
 
     init_run     :      8.57s CPU      9.01s WALL (       2 calls)
     electrons    :   6385.51s CPU   6715.51s WALL (      15 calls)
     update_pot   :     13.18s CPU     13.23s WALL (      13 calls)
     forces       :     25.88s CPU     28.10s WALL (      15 calls)
     stress       :    301.95s CPU    319.17s WALL (      15 calls)

     Called by init_run:
     wfcinit      :      4.92s CPU      5.06s WALL (       2 calls)
     wfcinit:atom :      0.11s CPU      0.11s WALL (      54 calls)
     wfcinit:wfcr :      4.38s CPU      4.52s WALL (      54 calls)
     potinit      :      0.04s CPU      0.04s WALL (       2 calls)
     hinit0       :      2.56s CPU      2.60s WALL (       2 calls)

     Called by electrons:
     c_bands      :   4658.00s CPU   4720.80s WALL (     830 calls)
     sum_band     :   1306.40s CPU   1468.36s WALL (     830 calls)
     v_of_rho     :      7.32s CPU      7.38s WALL (     845 calls)
     v_h          :      4.24s CPU      4.28s WALL (     845 calls)
     v_xc         :      3.18s CPU      3.22s WALL (     875 calls)
     newd         :    405.35s CPU    512.22s WALL (     845 calls)
     mix_rho      :     10.30s CPU     10.53s WALL (     830 calls)

     Called by c_bands:
     init_us_2    :    106.32s CPU    107.55s WALL (   45684 calls)
     init_us_2:cp :    106.10s CPU    107.43s WALL (   45684 calls)
     cegterg      :   4136.11s CPU   4194.95s WALL (   22427 calls)

     Called by sum_band:
     sum_band:wei :      1.12s CPU      1.15s WALL (     830 calls)
     sum_band:loo :    814.64s CPU    828.84s WALL (     830 calls)
     sum_band:buf :     18.46s CPU     18.69s WALL (   22410 calls)
     sum_band:ini :     50.85s CPU     51.21s WALL (   22410 calls)
     sum_band:cal :    149.67s CPU    152.23s WALL (   22410 calls)
     sum_band:bec :      1.05s CPU      1.07s WALL (   22410 calls)
     addusdens    :    480.23s CPU    624.94s WALL (     830 calls)
                                        0.00s GPU  (     830 calls)
     addusd:skk   :      2.75s CPU      2.86s WALL (    3320 calls)
                                        0.00s GPU  (    3320 calls)

     Called by *egterg:
     cdiaghg      :    147.20s CPU    148.93s WALL (   76482 calls)
     cegterg:over :    291.79s CPU    298.85s WALL (   54423 calls)
     cegterg:upda :    152.02s CPU    153.66s WALL (   54423 calls)
     cegterg:last :    316.04s CPU    316.92s WALL (   36915 calls)
     h_psi        :   2683.44s CPU   2726.28s WALL (   76904 calls)
     s_psi        :    330.40s CPU    331.35s WALL (   76904 calls)
     g_psi        :     12.70s CPU     12.73s WALL (   54423 calls)

     Called by h_psi:
     h_psi:calbec :    339.70s CPU    345.40s WALL (   76904 calls)
     vloc_psi     :   1980.78s CPU   2015.67s WALL (   76904 calls)
     add_vuspsi   :    330.03s CPU    332.20s WALL (   76904 calls)

     General routines
     calbec       :    508.26s CPU    520.27s WALL (  101339 calls)
     fft          :     12.33s CPU     12.63s WALL (    5173 calls)
     ffts         :      0.99s CPU      1.00s WALL (    1675 calls)
     fftw         :   1901.74s CPU   1935.85s WALL ( 7042128 calls)
     interpolate  :      3.02s CPU      3.05s WALL (     845 calls)
 
     Parallel routines
 
     PWSCF        :      1h52m CPU      1h58m WALL

 
   This run was terminated on:  20:38:44  31Dec2023            

=------------------------------------------------------------------------------=
   JOB DONE.
=------------------------------------------------------------------------------=
