
     Program BANDS v.7.2 starts on 31Dec2023 at 18:37:23 

     This program is part of the open-source Quantum ESPRESSO suite
     for quantum simulation of materials; please cite
         "P. Giannozzi et al., J. Phys.:Condens. Matter 21 395502 (2009);
         "P. Giannozzi et al., J. Phys.:Condens. Matter 29 465901 (2017);
         "P. Giannozzi et al., J. Chem. Phys. 152 154105 (2020);
          URL http://www.quantum-espresso.org", 
     in publications or presentations arising from this work. More details at
     http://www.quantum-espresso.org/quote

     Parallel version (MPI), running on     4 processors

     MPI processes distributed on     1 nodes
     R & G space division:  proc/nbgrp/npool/nimage =       4
     4316 MiB available memory on the printing compute node when the environment starts
 

     Reading xml data from directory:

     ./YBCO7/YBCO7.save/
     file Y.pz-spn-rrkjus_psl.1.0.0.UPF: wavefunction(s)  4S renormalized
     file Ba.pz-spn-rrkjus_psl.1.0.0.UPF: wavefunction(s)  5S 6S renormalized
     file Cu.pz-dn-rrkjus_psl.1.0.0.UPF: wavefunction(s)  3D renormalized

     IMPORTANT: XC functional enforced from input :
     Exchange-correlation= PZ
                           (   1   1   0   0   0   0   0)
     Any further DFT definition will be discarded
     Please, verify this is what you really want

 
     Parallelization info
     --------------------
     sticks:   dense  smooth     PW     G-vecs:    dense   smooth      PW
     Min         544     242     70                57618    17092    2717
     Max         545     244     72                57625    17096    2722
     Sum        2177     973    285               230487    68375   10877
 
     Using Slab Decomposition
 
     Reading collected, re-writing distributed wavefunctions
     high-symmetry point:  0.0000 0.0000 0.0000   x coordinate   0.0000
     high-symmetry point:  0.0000 0.5000 0.0000   x coordinate   0.5000
     high-symmetry point:  0.5000 0.5000 0.0000   x coordinate   1.0000
     high-symmetry point:  0.5000 0.0000 0.0000   x coordinate   1.5000
     high-symmetry point:  0.0000 0.0000 0.0000   x coordinate   2.0000
     high-symmetry point:  0.5000 0.5000 0.0000   x coordinate   2.7071

     Plottable bands (eV) written to file YBCO7.band.gnu
     Bands written to file YBCO7.band

 **************************************************************************

                    xk=(   0.00000,   0.00000,   0.00000  )

     point group D_2h (mmm) 
     there are  8 classes
     the character table:

       E     C2    C2'   C2''  i     s_v   s_v'  s_v''
A_g    1.00  1.00  1.00  1.00  1.00  1.00  1.00  1.00
B_1g   1.00  1.00 -1.00 -1.00  1.00  1.00 -1.00 -1.00
B_2g   1.00 -1.00  1.00 -1.00  1.00 -1.00  1.00 -1.00
B_3g   1.00 -1.00 -1.00  1.00  1.00 -1.00 -1.00  1.00
A_u    1.00  1.00  1.00  1.00 -1.00 -1.00 -1.00 -1.00
B_1u   1.00  1.00 -1.00 -1.00 -1.00 -1.00  1.00  1.00
B_2u   1.00 -1.00  1.00 -1.00 -1.00  1.00 -1.00  1.00
B_3u   1.00 -1.00 -1.00  1.00 -1.00  1.00  1.00 -1.00

     the symmetry operations in each class and the name of the first element:

     E        1
                                                                 
     C2       2
                                                                 
     C2'      4
                                                                 
     C2''     3
                                                                 
     i        5
                                                                 
     s_v      6
                                                                 
     s_v'     8
                                                                 
     s_v''    7
                                                                 

     Band symmetry, D_2h (mmm)  point group:

     e(  1 -  1) =    -29.98645  eV     1   --> A_g            
     e(  2 -  2) =    -14.78174  eV     1   --> A_g            
     e(  3 -  3) =    -14.74516  eV     1   --> B_1u           
     e(  4 -  4) =    -10.87170  eV     1   --> B_1u           
     e(  5 -  5) =    -10.08596  eV     1   --> B_3u           
     e(  6 -  6) =    -10.08150  eV     1   --> B_2u           
     e(  7 -  7) =     -7.91772  eV     1   --> A_g            
     e(  8 -  8) =     -6.68519  eV     1   --> A_g            
     e(  9 -  9) =     -6.62852  eV     1   --> B_1u           
     e( 10 - 10) =     -6.54421  eV     1   --> A_g            
     e( 11 - 11) =     -6.24126  eV     1   --> B_1u           
     e( 12 - 12) =     -5.60049  eV     1   --> B_1u           
     e( 13 - 13) =     -5.51864  eV     1   --> A_g            
     e( 14 - 14) =      0.01062  eV     1   --> B_1u           
     e( 15 - 15) =      0.04234  eV     1   --> A_g            
     e( 16 - 16) =      0.30203  eV     1   --> B_3u           
     e( 17 - 17) =      0.33671  eV     1   --> B_2g           
     e( 18 - 18) =      0.35489  eV     1   --> B_2u           
     e( 19 - 19) =      0.41858  eV     1   --> B_3g           
     e( 20 - 20) =      5.19230  eV     1   --> B_3g           
     e( 21 - 21) =      5.19385  eV     1   --> B_2g           
     e( 22 - 22) =      5.43483  eV     1   --> A_g            
     e( 23 - 23) =      5.49368  eV     1   --> A_g            
     e( 24 - 24) =      5.56949  eV     1   --> B_2u           
     e( 25 - 25) =      5.58568  eV     1   --> B_3u           
     e( 26 - 26) =      6.47317  eV     1   --> A_g            
     e( 27 - 27) =      6.82861  eV     1   --> B_1u           
     e( 28 - 28) =      6.85134  eV     1   --> B_3u           
     e( 29 - 29) =      7.13971  eV     1   --> B_2g           
     e( 30 - 30) =      7.34728  eV     1   --> B_3g           
     e( 31 - 31) =      7.48890  eV     1   --> B_1u           
     e( 32 - 32) =      7.63767  eV     1   --> B_1g           
     e( 33 - 33) =      7.68017  eV     1   --> A_u            
     e( 34 - 34) =      7.78238  eV     1   --> B_1u           
     e( 35 - 35) =      7.84515  eV     1   --> A_g            
     e( 36 - 36) =      7.90971  eV     1   --> B_2g           
     e( 37 - 37) =      7.91168  eV     1   --> B_3g           
     e( 38 - 38) =      7.92576  eV     1   --> B_1g           
     e( 39 - 39) =      8.01816  eV     1   --> B_2u           
     e( 40 - 40) =      8.09006  eV     1   --> B_3u           
     e( 41 - 41) =      8.44973  eV     1   --> B_2u           
     e( 42 - 42) =      8.73647  eV     1   --> A_g            
     e( 43 - 43) =      8.77033  eV     1   --> B_2g           
     e( 44 - 44) =      8.77294  eV     1   --> B_1u           
     e( 45 - 45) =      8.78481  eV     1   --> B_3g           
     e( 46 - 46) =      9.03142  eV     1   --> B_2u           
     e( 47 - 47) =      9.05868  eV     1   --> B_3u           
     e( 48 - 48) =      9.09134  eV     1   --> A_g            
     e( 49 - 49) =      9.53549  eV     1   --> B_1u           
     e( 50 - 50) =      9.69665  eV     1   --> B_2u           
     e( 51 - 51) =     10.09973  eV     1   --> B_3u           
     e( 52 - 52) =     10.16854  eV     1   --> A_g            
     e( 53 - 53) =     10.17065  eV     1   --> B_1u           
     e( 54 - 54) =     10.34417  eV     1   --> B_3g           
     e( 55 - 55) =     10.35703  eV     1   --> B_2g           
     e( 56 - 56) =     13.32465  eV     1   --> A_g            
     e( 57 - 57) =     13.89075  eV     1   --> A_g            
     e( 58 - 58) =     14.81642  eV     1   --> B_1u           
     e( 59 - 59) =     14.89169  eV     1   --> A_g            
     e( 60 - 60) =     15.99542  eV     1   --> B_1g           
     e( 61 - 61) =     16.00745  eV     1   --> A_g            
     e( 62 - 62) =     16.83235  eV     1   --> B_1u           
     e( 63 - 63) =     17.05616  eV     1   --> A_g            
     e( 64 - 64) =     17.46058  eV     1   --> B_1u           
     e( 65 - 65) =     17.79063  eV     1   --> B_3u           
     e( 66 - 66) =     17.97161  eV     1   --> B_3g           
     e( 67 - 67) =     17.99711  eV     1   --> B_2g           
     e( 68 - 68) =     18.45189  eV     1   --> A_g            
     e( 69 - 69) =     18.73386  eV     1   --> B_2u           
     e( 70 - 70) =     19.03935  eV     1   --> B_1g           
     e( 71 - 71) =     19.10275  eV     1   --> A_u            
     e( 72 - 72) =     19.64322  eV     1   --> B_3g           
     e( 73 - 73) =     19.66830  eV     1   --> B_2g           
     e( 74 - 74) =     20.04008  eV     1   --> B_1u           
     e( 75 - 75) =     20.59849  eV     1   --> A_g            
     e( 76 - 76) =     21.21553  eV     1   --> A_g            
     e( 77 - 77) =     22.25138  eV     1   --> B_2u           
     e( 78 - 78) =     23.16699  eV     1   --> B_1u           
     e( 79 - 79) =     23.18744  eV     1   --> A_g            
     e( 80 - 80) =     23.22301  eV     1   --> B_3u           
     e( 81 - 81) =     23.48253  eV     1   --> B_2u           
     e( 82 - 82) =     23.86945  eV     1   --> B_1u           

 **************************************************************************

 **************************************************************************

                    xk=(   0.00000,   0.02500,   0.00000  )

     point group C_2v (mm2) 
     there are  4 classes
     the character table:

       E     C2    s_v   s_v' 
A_1    1.00  1.00  1.00  1.00
A_2    1.00  1.00 -1.00 -1.00
B_1    1.00 -1.00  1.00 -1.00
B_2    1.00 -1.00 -1.00  1.00

     the symmetry operations in each class and the name of the first element:

     E        1
                                                                 
     C2       2
                                                                 
     s_v      3
                                                                 
     s_v'     4
                                                                 

     Band symmetry, C_2v (mm2)  point group:

     e(  1 -  1) =    -29.98634  eV     1   --> A_1  D_1  S_1  
     e(  2 -  2) =    -14.78066  eV     1   --> A_1  D_1  S_1  
     e(  3 -  3) =    -14.74410  eV     1   --> B_2  D_4  S_4  
     e(  4 -  4) =    -10.86977  eV     1   --> B_2  D_4  S_4  
     e(  5 -  5) =    -10.09291  eV     1   --> A_1  D_1  S_1  
     e(  6 -  6) =    -10.08133  eV     1   --> B_1  D_3  S_3  
     e(  7 -  7) =     -7.91094  eV     1   --> A_1  D_1  S_1  
     e(  8 -  8) =     -6.68332  eV     1   --> A_1  D_1  S_1  
     e(  9 -  9) =     -6.62948  eV     1   --> B_2  D_4  S_4  
     e( 10 - 10) =     -6.54220  eV     1   --> A_1  D_1  S_1  
     e( 11 - 11) =     -6.24312  eV     1   --> B_2  D_4  S_4  
     e( 12 - 12) =     -5.60366  eV     1   --> B_2  D_4  S_4  
     e( 13 - 13) =     -5.52219  eV     1   --> A_1  D_1  S_1  
     e( 14 - 14) =      0.01031  eV     1   --> B_2  D_4  S_4  
     e( 15 - 15) =      0.04337  eV     1   --> A_1  D_1  S_1  
     e( 16 - 16) =      0.30198  eV     1   --> A_1  D_1  S_1  
     e( 17 - 17) =      0.33761  eV     1   --> B_2  D_4  S_4  
     e( 18 - 18) =      0.35675  eV     1   --> B_1  D_3  S_3  
     e( 19 - 19) =      0.42052  eV     1   --> A_2  D_2  S_2  
     e( 20 - 20) =      5.19028  eV     1   --> B_2  D_4  S_4  
     e( 21 - 21) =      5.19444  eV     1   --> A_2  D_2  S_2  
     e( 22 - 22) =      5.42185  eV     1   --> A_1  D_1  S_1  
     e( 23 - 23) =      5.49383  eV     1   --> A_1  D_1  S_1  
     e( 24 - 24) =      5.56985  eV     1   --> B_1  D_3  S_3  
     e( 25 - 25) =      5.58878  eV     1   --> A_1  D_1  S_1  
     e( 26 - 26) =      6.47599  eV     1   --> A_1  D_1  S_1  
     e( 27 - 27) =      6.82267  eV     1   --> A_1  D_1  S_1  
     e( 28 - 28) =      6.82789  eV     1   --> B_2  D_4  S_4  
     e( 29 - 29) =      7.12401  eV     1   --> B_2  D_4  S_4  
     e( 30 - 30) =      7.34429  eV     1   --> A_2  D_2  S_2  
     e( 31 - 31) =      7.47982  eV     1   --> B_2  D_4  S_4  
     e( 32 - 32) =      7.62284  eV     1   --> B_1  D_3  S_3  
     e( 33 - 33) =      7.65578  eV     1   --> A_2  D_2  S_2  
     e( 34 - 34) =      7.76242  eV     1   --> B_2  D_4  S_4  
     e( 35 - 35) =      7.84604  eV     1   --> A_1  D_1  S_1  
     e( 36 - 36) =      7.88911  eV     1   --> B_1  D_3  S_3  
     e( 37 - 37) =      7.93217  eV     1   --> A_2  D_2  S_2  
     e( 38 - 38) =      7.94984  eV     1   --> B_2  D_4  S_4  
     e( 39 - 39) =      8.04623  eV     1   --> B_1  D_3  S_3  
     e( 40 - 40) =      8.08869  eV     1   --> A_1  D_1  S_1  
     e( 41 - 41) =      8.46462  eV     1   --> B_1  D_3  S_3  
     e( 42 - 42) =      8.71493  eV     1   --> B_2  D_4  S_4  
     e( 43 - 43) =      8.74220  eV     1   --> A_1  D_1  S_1  
     e( 44 - 44) =      8.78632  eV     1   --> A_2  D_2  S_2  
     e( 45 - 45) =      8.81340  eV     1   --> B_2  D_4  S_4  
     e( 46 - 46) =      8.97557  eV     1   --> A_1  D_1  S_1  
     e( 47 - 47) =      9.03715  eV     1   --> B_1  D_3  S_3  
     e( 48 - 48) =      9.16922  eV     1   --> A_1  D_1  S_1  
     e( 49 - 49) =      9.55474  eV     1   --> B_2  D_4  S_4  
     e( 50 - 50) =      9.69217  eV     1   --> B_1  D_3  S_3  
     e( 51 - 51) =     10.05563  eV     1   --> A_1  D_1  S_1  
     e( 52 - 52) =     10.16763  eV     1   --> B_2  D_4  S_4  
     e( 53 - 53) =     10.22904  eV     1   --> A_1  D_1  S_1  
     e( 54 - 54) =     10.33869  eV     1   --> A_2  D_2  S_2  
     e( 55 - 55) =     10.36003  eV     1   --> B_2  D_4  S_4  
     e( 56 - 56) =     13.33973  eV     1   --> A_1  D_1  S_1  
     e( 57 - 57) =     13.89940  eV     1   --> A_1  D_1  S_1  
     e( 58 - 58) =     14.83095  eV     1   --> B_2  D_4  S_4  
     e( 59 - 59) =     14.90371  eV     1   --> A_1  D_1  S_1  
     e( 60 - 60) =     15.99345  eV     1   --> B_1  D_3  S_3  
     e( 61 - 61) =     16.01214  eV     1   --> A_1  D_1  S_1  
     e( 62 - 62) =     16.84259  eV     1   --> B_2  D_4  S_4  
     e( 63 - 63) =     17.06593  eV     1   --> A_1  D_1  S_1  
     e( 64 - 64) =     17.46714  eV     1   --> B_2  D_4  S_4  
     e( 65 - 65) =     17.77408  eV     1   --> A_1  D_1  S_1  
     e( 66 - 66) =     17.97167  eV     1   --> A_2  D_2  S_2  
     e( 67 - 67) =     17.99221  eV     1   --> B_2  D_4  S_4  
     e( 68 - 68) =     18.46328  eV     1   --> A_1  D_1  S_1  
     e( 69 - 69) =     18.73380  eV     1   --> B_1  D_3  S_3  
     e( 70 - 70) =     19.05186  eV     1   --> B_1  D_3  S_3  
     e( 71 - 71) =     19.11647  eV     1   --> A_2  D_2  S_2  
     e( 72 - 72) =     19.64283  eV     1   --> A_2  D_2  S_2  
     e( 73 - 73) =     19.65662  eV     1   --> B_2  D_4  S_4  
     e( 74 - 74) =     20.05485  eV     1   --> B_2  D_4  S_4  
     e( 75 - 75) =     20.60345  eV     1   --> A_1  D_1  S_1  
     e( 76 - 76) =     21.21975  eV     1   --> A_1  D_1  S_1  
     e( 77 - 77) =     22.24382  eV     1   --> B_1  D_3  S_3  
     e( 78 - 78) =     22.97392  eV     1   --> A_1  D_1  S_1  
     e( 79 - 79) =     23.18383  eV     1   --> B_2  D_4  S_4  
     e( 80 - 80) =     23.43392  eV     1   --> A_1  D_1  S_1  
     e( 81 - 81) =     23.49437  eV     1   --> B_1  D_3  S_3  
     e( 82 - 82) =     23.87786  eV     1   --> B_2  D_4  S_4  

 **************************************************************************

 **************************************************************************

                    xk=(   0.00000,   0.05000,   0.00000  )

     Band symmetry, C_2v (mm2)  point group:

     e(  1 -  1) =    -29.98596  eV     1   --> A_1  D_1  S_1  
     e(  2 -  2) =    -14.77744  eV     1   --> A_1  D_1  S_1  
     e(  3 -  3) =    -14.74095  eV     1   --> B_2  D_4  S_4  
     e(  4 -  4) =    -10.86397  eV     1   --> B_2  D_4  S_4  
     e(  5 -  5) =    -10.11331  eV     1   --> A_1  D_1  S_1  
     e(  6 -  6) =    -10.08083  eV     1   --> B_1  D_3  S_3  
     e(  7 -  7) =     -7.89099  eV     1   --> A_1  D_1  S_1  
     e(  8 -  8) =     -6.67775  eV     1   --> A_1  D_1  S_1  
     e(  9 -  9) =     -6.63259  eV     1   --> B_2  D_4  S_4  
     e( 10 - 10) =     -6.53627  eV     1   --> A_1  D_1  S_1  
     e( 11 - 11) =     -6.24841  eV     1   --> B_2  D_4  S_4  
     e( 12 - 12) =     -5.61305  eV     1   --> B_2  D_4  S_4  
     e( 13 - 13) =     -5.53271  eV     1   --> A_1  D_1  S_1  
     e( 14 - 14) =      0.00943  eV     1   --> B_2  D_4  S_4  
     e( 15 - 15) =      0.04646  eV     1   --> A_1  D_1  S_1  
     e( 16 - 16) =      0.30184  eV     1   --> A_1  D_1  S_1  
     e( 17 - 17) =      0.34028  eV     1   --> B_2  D_4  S_4  
     e( 18 - 18) =      0.36229  eV     1   --> B_1  D_3  S_3  
     e( 19 - 19) =      0.42631  eV     1   --> A_2  D_2  S_2  
     e( 20 - 20) =      5.17957  eV     1   --> B_2  D_4  S_4  
     e( 21 - 21) =      5.20083  eV     1   --> A_2  D_2  S_2  
     e( 22 - 22) =      5.38458  eV     1   --> A_1  D_1  S_1  
     e( 23 - 23) =      5.49458  eV     1   --> A_1  D_1  S_1  
     e( 24 - 24) =      5.57089  eV     1   --> B_1  D_3  S_3  
     e( 25 - 25) =      5.59694  eV     1   --> A_1  D_1  S_1  
     e( 26 - 26) =      6.48257  eV     1   --> A_1  D_1  S_1  
     e( 27 - 27) =      6.74219  eV     1   --> A_1  D_1  S_1  
     e( 28 - 28) =      6.82549  eV     1   --> B_2  D_4  S_4  
     e( 29 - 29) =      7.07950  eV     1   --> B_2  D_4  S_4  
     e( 30 - 30) =      7.33526  eV     1   --> A_2  D_2  S_2  
     e( 31 - 31) =      7.45455  eV     1   --> B_2  D_4  S_4  
     e( 32 - 32) =      7.58136  eV     1   --> B_1  D_3  S_3  
     e( 33 - 33) =      7.59860  eV     1   --> A_2  D_2  S_2  
     e( 34 - 34) =      7.73751  eV     1   --> B_2  D_4  S_4  
     e( 35 - 35) =      7.82181  eV     1   --> B_1  D_3  S_3  
     e( 36 - 36) =      7.84790  eV     1   --> A_1  D_1  S_1  
     e( 37 - 37) =      7.97775  eV     1   --> A_2  D_2  S_2  
     e( 38 - 38) =      8.03104  eV     1   --> B_2  D_4  S_4  
     e( 39 - 39) =      8.08448  eV     1   --> A_1  D_1  S_1  
     e( 40 - 40) =      8.08833  eV     1   --> B_1  D_3  S_3  
     e( 41 - 41) =      8.50540  eV     1   --> B_1  D_3  S_3  
     e( 42 - 42) =      8.63493  eV     1   --> B_2  D_4  S_4  
     e( 43 - 43) =      8.75577  eV     1   --> A_1  D_1  S_1  
     e( 44 - 44) =      8.79097  eV     1   --> A_2  D_2  S_2  
     e( 45 - 45) =      8.85674  eV     1   --> B_2  D_4  S_4  
     e( 46 - 46) =      8.87839  eV     1   --> A_1  D_1  S_1  
     e( 47 - 47) =      9.05458  eV     1   --> B_1  D_3  S_3  
     e( 48 - 48) =      9.25284  eV     1   --> A_1  D_1  S_1  
     e( 49 - 49) =      9.60458  eV     1   --> B_2  D_4  S_4  
     e( 50 - 50) =      9.67932  eV     1   --> B_1  D_3  S_3  
     e( 51 - 51) =      9.99642  eV     1   --> A_1  D_1  S_1  
     e( 52 - 52) =     10.15800  eV     1   --> B_2  D_4  S_4  
     e( 53 - 53) =     10.32255  eV     1   --> A_2  D_2  S_2  
     e( 54 - 54) =     10.33656  eV     1   --> A_1  D_1  S_1  
     e( 55 - 55) =     10.36982  eV     1   --> B_2  D_4  S_4  
     e( 56 - 56) =     13.38454  eV     1   --> A_1  D_1  S_1  
     e( 57 - 57) =     13.92494  eV     1   --> A_1  D_1  S_1  
     e( 58 - 58) =     14.87437  eV     1   --> B_2  D_4  S_4  
     e( 59 - 59) =     14.93956  eV     1   --> A_1  D_1  S_1  
     e( 60 - 60) =     15.98765  eV     1   --> B_1  D_3  S_3  
     e( 61 - 61) =     16.02586  eV     1   --> A_1  D_1  S_1  
     e( 62 - 62) =     16.87315  eV     1   --> B_2  D_4  S_4  
     e( 63 - 63) =     17.09414  eV     1   --> A_1  D_1  S_1  
     e( 64 - 64) =     17.48650  eV     1   --> B_2  D_4  S_4  
     e( 65 - 65) =     17.73074  eV     1   --> A_1  D_1  S_1  
     e( 66 - 66) =     17.97220  eV     1   --> A_2  D_2  S_2  
     e( 67 - 67) =     17.97806  eV     1   --> B_2  D_4  S_4  
     e( 68 - 68) =     18.49212  eV     1   --> A_1  D_1  S_1  
     e( 69 - 69) =     18.73466  eV     1   --> B_1  D_3  S_3  
     e( 70 - 70) =     19.08783  eV     1   --> B_1  D_3  S_3  
     e( 71 - 71) =     19.15667  eV     1   --> A_2  D_2  S_2  
     e( 72 - 72) =     19.62354  eV     1   --> B_2  D_4  S_4  
     e( 73 - 73) =     19.64185  eV     1   --> A_2  D_2  S_2  
     e( 74 - 74) =     20.09808  eV     1   --> B_2  D_4  S_4  
     e( 75 - 75) =     20.61835  eV     1   --> A_1  D_1  S_1  
     e( 76 - 76) =     21.23200  eV     1   --> A_1  D_1  S_1  
     e( 77 - 77) =     22.22021  eV     1   --> B_1  D_3  S_3  
     e( 78 - 78) =     22.74793  eV     1   --> A_1  D_1  S_1  
     e( 79 - 79) =     23.23278  eV     1   --> B_2  D_4  S_4  
     e( 80 - 80) =     23.53064  eV     1   --> B_1  D_3  S_3  
     e( 81 - 81) =     23.65058  eV     1   --> A_1  D_1  S_1  
     e( 82 - 82) =     23.90195  eV     1   --> B_2  D_4  S_4  

 **************************************************************************

 **************************************************************************

                    xk=(   0.00000,   0.07500,   0.00000  )

     Band symmetry, C_2v (mm2)  point group:

     e(  1 -  1) =    -29.98534  eV     1   --> A_1  D_1  S_1  
     e(  2 -  2) =    -14.77214  eV     1   --> A_1  D_1  S_1  
     e(  3 -  3) =    -14.73577  eV     1   --> B_2  D_4  S_4  
     e(  4 -  4) =    -10.85441  eV     1   --> B_2  D_4  S_4  
     e(  5 -  5) =    -10.14599  eV     1   --> A_1  D_1  S_1  
     e(  6 -  6) =    -10.08000  eV     1   --> B_1  D_3  S_3  
     e(  7 -  7) =     -7.85897  eV     1   --> A_1  D_1  S_1  
     e(  8 -  8) =     -6.66863  eV     1   --> A_1  D_1  S_1  
     e(  9 -  9) =     -6.63852  eV     1   --> B_2  D_4  S_4  
     e( 10 - 10) =     -6.52665  eV     1   --> A_1  D_1  S_1  
     e( 11 - 11) =     -6.25629  eV     1   --> B_2  D_4  S_4  
     e( 12 - 12) =     -5.62839  eV     1   --> B_2  D_4  S_4  
     e( 13 - 13) =     -5.54989  eV     1   --> A_1  D_1  S_1  
     e( 14 - 14) =      0.00815  eV     1   --> B_2  D_4  S_4  
     e( 15 - 15) =      0.05150  eV     1   --> A_1  D_1  S_1  
     e( 16 - 16) =      0.30168  eV     1   --> A_1  D_1  S_1  
     e( 17 - 17) =      0.34458  eV     1   --> B_2  D_4  S_4  
     e( 18 - 18) =      0.37140  eV     1   --> B_1  D_3  S_3  
     e( 19 - 19) =      0.43585  eV     1   --> A_2  D_2  S_2  
     e( 20 - 20) =      5.16140  eV     1   --> B_2  D_4  S_4  
     e( 21 - 21) =      5.21155  eV     1   --> A_2  D_2  S_2  
     e( 22 - 22) =      5.32736  eV     1   --> A_1  D_1  S_1  
     e( 23 - 23) =      5.49497  eV     1   --> A_1  D_1  S_1  
     e( 24 - 24) =      5.57269  eV     1   --> B_1  D_3  S_3  
     e( 25 - 25) =      5.60902  eV     1   --> A_1  D_1  S_1  
     e( 26 - 26) =      6.48397  eV     1   --> A_1  D_1  S_1  
     e( 27 - 27) =      6.62720  eV     1   --> A_1  D_1  S_1  
     e( 28 - 28) =      6.82022  eV     1   --> B_2  D_4  S_4  
     e( 29 - 29) =      7.01300  eV     1   --> B_2  D_4  S_4  
     e( 30 - 30) =      7.31980  eV     1   --> A_2  D_2  S_2  
     e( 31 - 31) =      7.41927  eV     1   --> B_2  D_4  S_4  
     e( 32 - 32) =      7.51998  eV     1   --> B_1  D_3  S_3  
     e( 33 - 33) =      7.52744  eV     1   --> A_2  D_2  S_2  
     e( 34 - 34) =      7.72569  eV     1   --> B_2  D_4  S_4  
     e( 35 - 35) =      7.74638  eV     1   --> B_1  D_3  S_3  
     e( 36 - 36) =      7.84962  eV     1   --> A_1  D_1  S_1  
     e( 37 - 37) =      8.02995  eV     1   --> A_2  D_2  S_2  
     e( 38 - 38) =      8.07710  eV     1   --> A_1  D_1  S_1  
     e( 39 - 39) =      8.12101  eV     1   --> B_2  D_4  S_4  
     e( 40 - 40) =      8.12306  eV     1   --> B_1  D_3  S_3  
     e( 41 - 41) =      8.54122  eV     1   --> B_2  D_4  S_4  
     e( 42 - 42) =      8.56313  eV     1   --> B_1  D_3  S_3  
     e( 43 - 43) =      8.74516  eV     1   --> A_1  D_1  S_1  
     e( 44 - 44) =      8.79886  eV     1   --> A_2  D_2  S_2  
     e( 45 - 45) =      8.81200  eV     1   --> A_1  D_1  S_1  
     e( 46 - 46) =      8.91036  eV     1   --> B_2  D_4  S_4  
     e( 47 - 47) =      9.08409  eV     1   --> B_1  D_3  S_3  
     e( 48 - 48) =      9.32487  eV     1   --> A_1  D_1  S_1  
     e( 49 - 49) =      9.65956  eV     1   --> B_1  D_3  S_3  
     e( 50 - 50) =      9.66936  eV     1   --> B_2  D_4  S_4  
     e( 51 - 51) =      9.93876  eV     1   --> A_1  D_1  S_1  
     e( 52 - 52) =     10.14062  eV     1   --> B_2  D_4  S_4  
     e( 53 - 53) =     10.29657  eV     1   --> A_2  D_2  S_2  
     e( 54 - 54) =     10.38780  eV     1   --> B_2  D_4  S_4  
     e( 55 - 55) =     10.47210  eV     1   --> A_1  D_1  S_1  
     e( 56 - 56) =     13.45784  eV     1   --> A_1  D_1  S_1  
     e( 57 - 57) =     13.96627  eV     1   --> A_1  D_1  S_1  
     e( 58 - 58) =     14.94618  eV     1   --> B_2  D_4  S_4  
     e( 59 - 59) =     14.99858  eV     1   --> A_1  D_1  S_1  
     e( 60 - 60) =     15.97822  eV     1   --> B_1  D_3  S_3  
     e( 61 - 61) =     16.04762  eV     1   --> A_1  D_1  S_1  
     e( 62 - 62) =     16.92354  eV     1   --> B_2  D_4  S_4  
     e( 63 - 63) =     17.13705  eV     1   --> A_1  D_1  S_1  
     e( 64 - 64) =     17.51776  eV     1   --> B_2  D_4  S_4  
     e( 65 - 65) =     17.67517  eV     1   --> A_1  D_1  S_1  
     e( 66 - 66) =     17.95590  eV     1   --> B_2  D_4  S_4  
     e( 67 - 67) =     17.97407  eV     1   --> A_2  D_2  S_2  
     e( 68 - 68) =     18.52729  eV     1   --> A_1  D_1  S_1  
     e( 69 - 69) =     18.73863  eV     1   --> B_1  D_3  S_3  
     e( 70 - 70) =     19.14355  eV     1   --> B_1  D_3  S_3  
     e( 71 - 71) =     19.22054  eV     1   --> A_2  D_2  S_2  
     e( 72 - 72) =     19.57424  eV     1   --> B_2  D_4  S_4  
     e( 73 - 73) =     19.64085  eV     1   --> A_2  D_2  S_2  
     e( 74 - 74) =     20.16685  eV     1   --> B_2  D_4  S_4  
     e( 75 - 75) =     20.64309  eV     1   --> A_1  D_1  S_1  
     e( 76 - 76) =     21.25091  eV     1   --> A_1  D_1  S_1  
     e( 77 - 77) =     22.17822  eV     1   --> B_1  D_3  S_3  
     e( 78 - 78) =     22.53249  eV     1   --> A_1  D_1  S_1  
     e( 79 - 79) =     23.30936  eV     1   --> B_2  D_4  S_4  
     e( 80 - 80) =     23.59325  eV     1   --> B_1  D_3  S_3  
     e( 81 - 81) =     23.84574  eV     1   --> A_1  D_1  S_1  
     e( 82 - 82) =     23.93814  eV     1   --> B_2  D_4  S_4  

 **************************************************************************

 **************************************************************************

                    xk=(   0.00000,   0.10000,   0.00000  )

     Band symmetry, C_2v (mm2)  point group:

     e(  1 -  1) =    -29.98451  eV     1   --> A_1  D_1  S_1  
     e(  2 -  2) =    -14.76489  eV     1   --> A_1  D_1  S_1  
     e(  3 -  3) =    -14.72869  eV     1   --> B_2  D_4  S_4  
     e(  4 -  4) =    -10.84125  eV     1   --> B_2  D_4  S_4  
     e(  5 -  5) =    -10.18920  eV     1   --> A_1  D_1  S_1  
     e(  6 -  6) =    -10.07888  eV     1   --> B_1  D_3  S_3  
     e(  7 -  7) =     -7.81649  eV     1   --> A_1  D_1  S_1  
     e(  8 -  8) =     -6.65625  eV     1   --> A_1  D_1  S_1  
     e(  9 -  9) =     -6.64833  eV     1   --> B_2  D_4  S_4  
     e( 10 - 10) =     -6.51372  eV     1   --> A_1  D_1  S_1  
     e( 11 - 11) =     -6.26548  eV     1   --> B_2  D_4  S_4  
     e( 12 - 12) =     -5.64923  eV     1   --> B_2  D_4  S_4  
     e( 13 - 13) =     -5.57319  eV     1   --> A_1  D_1  S_1  
     e( 14 - 14) =      0.00673  eV     1   --> B_2  D_4  S_4  
     e( 15 - 15) =      0.05837  eV     1   --> A_1  D_1  S_1  
     e( 16 - 16) =      0.30156  eV     1   --> A_1  D_1  S_1  
     e( 17 - 17) =      0.35027  eV     1   --> B_2  D_4  S_4  
     e( 18 - 18) =      0.38391  eV     1   --> B_1  D_3  S_3  
     e( 19 - 19) =      0.44896  eV     1   --> A_2  D_2  S_2  
     e( 20 - 20) =      5.13518  eV     1   --> B_2  D_4  S_4  
     e( 21 - 21) =      5.22646  eV     1   --> A_2  D_2  S_2  
     e( 22 - 22) =      5.25468  eV     1   --> A_1  D_1  S_1  
     e( 23 - 23) =      5.49288  eV     1   --> A_1  D_1  S_1  
     e( 24 - 24) =      5.57527  eV     1   --> B_1  D_3  S_3  
     e( 25 - 25) =      5.62510  eV     1   --> A_1  D_1  S_1  
     e( 26 - 26) =      6.42313  eV     1   --> A_1  D_1  S_1  
     e( 27 - 27) =      6.54421  eV     1   --> A_1  D_1  S_1  
     e( 28 - 28) =      6.80788  eV     1   --> B_2  D_4  S_4  
     e( 29 - 29) =      6.93535  eV     1   --> B_2  D_4  S_4  
     e( 30 - 30) =      7.29694  eV     1   --> A_2  D_2  S_2  
     e( 31 - 31) =      7.38161  eV     1   --> B_2  D_4  S_4  
     e( 32 - 32) =      7.44560  eV     1   --> B_1  D_3  S_3  
     e( 33 - 33) =      7.45101  eV     1   --> A_2  D_2  S_2  
     e( 34 - 34) =      7.66773  eV     1   --> B_1  D_3  S_3  
     e( 35 - 35) =      7.72419  eV     1   --> B_2  D_4  S_4  
     e( 36 - 36) =      7.85117  eV     1   --> A_1  D_1  S_1  
     e( 37 - 37) =      8.06598  eV     1   --> A_1  D_1  S_1  
     e( 38 - 38) =      8.08098  eV     1   --> A_2  D_2  S_2  
     e( 39 - 39) =      8.14648  eV     1   --> B_1  D_3  S_3  
     e( 40 - 40) =      8.19026  eV     1   --> B_2  D_4  S_4  
     e( 41 - 41) =      8.46445  eV     1   --> B_2  D_4  S_4  
     e( 42 - 42) =      8.62846  eV     1   --> B_1  D_3  S_3  
     e( 43 - 43) =      8.66258  eV     1   --> A_1  D_1  S_1  
     e( 44 - 44) =      8.81012  eV     1   --> A_2  D_2  S_2  
     e( 45 - 45) =      8.82332  eV     1   --> A_1  D_1  S_1  
     e( 46 - 46) =      8.97508  eV     1   --> B_2  D_4  S_4  
     e( 47 - 47) =      9.12590  eV     1   --> B_1  D_3  S_3  
     e( 48 - 48) =      9.37957  eV     1   --> A_1  D_1  S_1  
     e( 49 - 49) =      9.63527  eV     1   --> B_1  D_3  S_3  
     e( 50 - 50) =      9.73629  eV     1   --> B_2  D_4  S_4  
     e( 51 - 51) =      9.88551  eV     1   --> A_1  D_1  S_1  
     e( 52 - 52) =     10.11507  eV     1   --> B_2  D_4  S_4  
     e( 53 - 53) =     10.26198  eV     1   --> A_2  D_2  S_2  
     e( 54 - 54) =     10.41429  eV     1   --> B_2  D_4  S_4  
     e( 55 - 55) =     10.63145  eV     1   --> A_1  D_1  S_1  
     e( 56 - 56) =     13.55763  eV     1   --> A_1  D_1  S_1  
     e( 57 - 57) =     14.02168  eV     1   --> A_1  D_1  S_1  
     e( 58 - 58) =     15.04549  eV     1   --> B_2  D_4  S_4  
     e( 59 - 59) =     15.07978  eV     1   --> A_1  D_1  S_1  
     e( 60 - 60) =     15.96551  eV     1   --> B_1  D_3  S_3  
     e( 61 - 61) =     16.07575  eV     1   --> A_1  D_1  S_1  
     e( 62 - 62) =     16.99287  eV     1   --> B_2  D_4  S_4  
     e( 63 - 63) =     17.18633  eV     1   --> A_1  D_1  S_1  
     e( 64 - 64) =     17.55961  eV     1   --> B_2  D_4  S_4  
     e( 65 - 65) =     17.62514  eV     1   --> A_1  D_1  S_1  
     e( 66 - 66) =     17.92711  eV     1   --> B_2  D_4  S_4  
     e( 67 - 67) =     17.97836  eV     1   --> A_2  D_2  S_2  
     e( 68 - 68) =     18.55905  eV     1   --> A_1  D_1  S_1  
     e( 69 - 69) =     18.74746  eV     1   --> B_1  D_3  S_3  
     e( 70 - 70) =     19.21481  eV     1   --> B_1  D_3  S_3  
     e( 71 - 71) =     19.30342  eV     1   --> A_2  D_2  S_2  
     e( 72 - 72) =     19.51610  eV     1   --> B_2  D_4  S_4  
     e( 73 - 73) =     19.64123  eV     1   --> A_2  D_2  S_2  
     e( 74 - 74) =     20.25730  eV     1   --> B_2  D_4  S_4  
     e( 75 - 75) =     20.67720  eV     1   --> A_1  D_1  S_1  
     e( 76 - 76) =     21.27369  eV     1   --> A_1  D_1  S_1  
     e( 77 - 77) =     22.11537  eV     1   --> B_1  D_3  S_3  
     e( 78 - 78) =     22.33493  eV     1   --> A_1  D_1  S_1  
     e( 79 - 79) =     23.40650  eV     1   --> B_2  D_4  S_4  
     e( 80 - 80) =     23.68429  eV     1   --> B_1  D_3  S_3  
     e( 81 - 81) =     23.98040  eV     1   --> B_2  D_4  S_4  
     e( 82 - 82) =     24.00801  eV     1   --> A_1  D_1  S_1  

 **************************************************************************

 **************************************************************************

                    xk=(   0.00000,   0.12500,   0.00000  )

     Band symmetry, C_2v (mm2)  point group:

     e(  1 -  1) =    -29.98347  eV     1   --> A_1  D_1  S_1  
     e(  2 -  2) =    -14.75583  eV     1   --> A_1  D_1  S_1  
     e(  3 -  3) =    -14.71984  eV     1   --> B_2  D_4  S_4  
     e(  4 -  4) =    -10.82470  eV     1   --> B_2  D_4  S_4  
     e(  5 -  5) =    -10.24083  eV     1   --> A_1  D_1  S_1  
     e(  6 -  6) =    -10.07748  eV     1   --> B_1  D_3  S_3  
     e(  7 -  7) =     -7.76543  eV     1   --> A_1  D_1  S_1  
     e(  8 -  8) =     -6.66330  eV     1   --> B_2  D_4  S_4  
     e(  9 -  9) =     -6.64100  eV     1   --> A_1  D_1  S_1  
     e( 10 - 10) =     -6.49794  eV     1   --> A_1  D_1  S_1  
     e( 11 - 11) =     -6.27434  eV     1   --> B_2  D_4  S_4  
     e( 12 - 12) =     -5.67496  eV     1   --> B_2  D_4  S_4  
     e( 13 - 13) =     -5.60189  eV     1   --> A_1  D_1  S_1  
     e( 14 - 14) =      0.00550  eV     1   --> B_2  D_4  S_4  
     e( 15 - 15) =      0.06686  eV     1   --> A_1  D_1  S_1  
     e( 16 - 16) =      0.30158  eV     1   --> A_1  D_1  S_1  
     e( 17 - 17) =      0.35710  eV     1   --> B_2  D_4  S_4  
     e( 18 - 18) =      0.39958  eV     1   --> B_1  D_3  S_3  
     e( 19 - 19) =      0.46537  eV     1   --> A_2  D_2  S_2  
     e( 20 - 20) =      5.10063  eV     1   --> B_2  D_4  S_4  
     e( 21 - 21) =      5.17046  eV     1   --> A_1  D_1  S_1  
     e( 22 - 22) =      5.24555  eV     1   --> A_2  D_2  S_2  
     e( 23 - 23) =      5.48626  eV     1   --> A_1  D_1  S_1  
     e( 24 - 24) =      5.57872  eV     1   --> B_1  D_3  S_3  
     e( 25 - 25) =      5.64506  eV     1   --> A_1  D_1  S_1  
     e( 26 - 26) =      6.26842  eV     1   --> A_1  D_1  S_1  
     e( 27 - 27) =      6.53435  eV     1   --> A_1  D_1  S_1  
     e( 28 - 28) =      6.77110  eV     1   --> B_2  D_4  S_4  
     e( 29 - 29) =      6.86975  eV     1   --> B_2  D_4  S_4  
     e( 30 - 30) =      7.26409  eV     1   --> A_2  D_2  S_2  
     e( 31 - 31) =      7.34704  eV     1   --> B_2  D_4  S_4  
     e( 32 - 32) =      7.36352  eV     1   --> B_1  D_3  S_3  
     e( 33 - 33) =      7.37521  eV     1   --> A_2  D_2  S_2  
     e( 34 - 34) =      7.58806  eV     1   --> B_1  D_3  S_3  
     e( 35 - 35) =      7.72862  eV     1   --> B_2  D_4  S_4  
     e( 36 - 36) =      7.85305  eV     1   --> A_1  D_1  S_1  
     e( 37 - 37) =      8.05043  eV     1   --> A_1  D_1  S_1  
     e( 38 - 38) =      8.12773  eV     1   --> A_2  D_2  S_2  
     e( 39 - 39) =      8.15723  eV     1   --> B_1  D_3  S_3  
     e( 40 - 40) =      8.17523  eV     1   --> B_2  D_4  S_4  
     e( 41 - 41) =      8.47245  eV     1   --> B_2  D_4  S_4  
     e( 42 - 42) =      8.57367  eV     1   --> A_1  D_1  S_1  
     e( 43 - 43) =      8.69381  eV     1   --> B_1  D_3  S_3  
     e( 44 - 44) =      8.82488  eV     1   --> A_2  D_2  S_2  
     e( 45 - 45) =      8.84729  eV     1   --> A_1  D_1  S_1  
     e( 46 - 46) =      9.04858  eV     1   --> B_2  D_4  S_4  
     e( 47 - 47) =      9.17985  eV     1   --> B_1  D_3  S_3  
     e( 48 - 48) =      9.40796  eV     1   --> A_1  D_1  S_1  
     e( 49 - 49) =      9.60967  eV     1   --> B_1  D_3  S_3  
     e( 50 - 50) =      9.79799  eV     1   --> B_2  D_4  S_4  
     e( 51 - 51) =      9.84486  eV     1   --> A_1  D_1  S_1  
     e( 52 - 52) =     10.08231  eV     1   --> B_2  D_4  S_4  
     e( 53 - 53) =     10.22039  eV     1   --> A_2  D_2  S_2  
     e( 54 - 54) =     10.44806  eV     1   --> B_2  D_4  S_4  
     e( 55 - 55) =     10.80868  eV     1   --> A_1  D_1  S_1  
     e( 56 - 56) =     13.68139  eV     1   --> A_1  D_1  S_1  
     e( 57 - 57) =     14.08915  eV     1   --> A_1  D_1  S_1  
     e( 58 - 58) =     15.17100  eV     1   --> B_2  D_4  S_4  
     e( 59 - 59) =     15.18184  eV     1   --> A_1  D_1  S_1  
     e( 60 - 60) =     15.94996  eV     1   --> B_1  D_3  S_3  
     e( 61 - 61) =     16.10793  eV     1   --> A_1  D_1  S_1  
     e( 62 - 62) =     17.07974  eV     1   --> B_2  D_4  S_4  
     e( 63 - 63) =     17.22624  eV     1   --> A_1  D_1  S_1  
     e( 64 - 64) =     17.60231  eV     1   --> A_1  D_1  S_1  
     e( 65 - 65) =     17.61058  eV     1   --> B_2  D_4  S_4  
     e( 66 - 66) =     17.89268  eV     1   --> B_2  D_4  S_4  
     e( 67 - 67) =     17.98601  eV     1   --> A_2  D_2  S_2  
     e( 68 - 68) =     18.58166  eV     1   --> A_1  D_1  S_1  
     e( 69 - 69) =     18.76204  eV     1   --> B_1  D_3  S_3  
     e( 70 - 70) =     19.29747  eV     1   --> B_1  D_3  S_3  
     e( 71 - 71) =     19.39754  eV     1   --> A_2  D_2  S_2  
     e( 72 - 72) =     19.45737  eV     1   --> B_2  D_4  S_4  
     e( 73 - 73) =     19.64683  eV     1   --> A_2  D_2  S_2  
     e( 74 - 74) =     20.36543  eV     1   --> B_2  D_4  S_4  
     e( 75 - 75) =     20.71946  eV     1   --> A_1  D_1  S_1  
     e( 76 - 76) =     21.29532  eV     1   --> A_1  D_1  S_1  
     e( 77 - 77) =     22.03033  eV     1   --> B_1  D_3  S_3  
     e( 78 - 78) =     22.16434  eV     1   --> A_1  D_1  S_1  
     e( 79 - 79) =     23.51362  eV     1   --> B_2  D_4  S_4  
     e( 80 - 80) =     23.80518  eV     1   --> B_1  D_3  S_3  
     e( 81 - 81) =     24.02171  eV     1   --> B_2  D_4  S_4  
     e( 82 - 82) =     24.13317  eV     1   --> A_1  D_1  S_1  

 **************************************************************************

 **************************************************************************

                    xk=(   0.00000,   0.15000,   0.00000  )

     Band symmetry, C_2v (mm2)  point group:

     e(  1 -  1) =    -29.98225  eV     1   --> A_1  D_1  S_1  
     e(  2 -  2) =    -14.74517  eV     1   --> A_1  D_1  S_1  
     e(  3 -  3) =    -14.70944  eV     1   --> B_2  D_4  S_4  
     e(  4 -  4) =    -10.80503  eV     1   --> B_2  D_4  S_4  
     e(  5 -  5) =    -10.29871  eV     1   --> A_1  D_1  S_1  
     e(  6 -  6) =    -10.07584  eV     1   --> B_1  D_3  S_3  
     e(  7 -  7) =     -7.70772  eV     1   --> A_1  D_1  S_1  
     e(  8 -  8) =     -6.68462  eV     1   --> B_2  D_4  S_4  
     e(  9 -  9) =     -6.62342  eV     1   --> A_1  D_1  S_1  
     e( 10 - 10) =     -6.47989  eV     1   --> A_1  D_1  S_1  
     e( 11 - 11) =     -6.28119  eV     1   --> B_2  D_4  S_4  
     e( 12 - 12) =     -5.70487  eV     1   --> B_2  D_4  S_4  
     e( 13 - 13) =     -5.63509  eV     1   --> A_1  D_1  S_1  
     e( 14 - 14) =      0.00479  eV     1   --> B_2  D_4  S_4  
     e( 15 - 15) =      0.07676  eV     1   --> A_1  D_1  S_1  
     e( 16 - 16) =      0.30184  eV     1   --> A_1  D_1  S_1  
     e( 17 - 17) =      0.36474  eV     1   --> B_2  D_4  S_4  
     e( 18 - 18) =      0.41809  eV     1   --> B_1  D_3  S_3  
     e( 19 - 19) =      0.48479  eV     1   --> A_2  D_2  S_2  
     e( 20 - 20) =      5.05768  eV     1   --> B_2  D_4  S_4  
     e( 21 - 21) =      5.07805  eV     1   --> A_1  D_1  S_1  
     e( 22 - 22) =      5.26873  eV     1   --> A_2  D_2  S_2  
     e( 23 - 23) =      5.47280  eV     1   --> A_1  D_1  S_1  
     e( 24 - 24) =      5.58315  eV     1   --> B_1  D_3  S_3  
     e( 25 - 25) =      5.66718  eV     1   --> A_1  D_1  S_1  
     e( 26 - 26) =      6.09509  eV     1   --> A_1  D_1  S_1  
     e( 27 - 27) =      6.53259  eV     1   --> A_1  D_1  S_1  
     e( 28 - 28) =      6.69113  eV     1   --> B_2  D_4  S_4  
     e( 29 - 29) =      6.83953  eV     1   --> B_2  D_4  S_4  
     e( 30 - 30) =      7.21534  eV     1   --> A_2  D_2  S_2  
     e( 31 - 31) =      7.27743  eV     1   --> B_1  D_3  S_3  
     e( 32 - 32) =      7.30771  eV     1   --> A_2  D_2  S_2  
     e( 33 - 33) =      7.31844  eV     1   --> B_2  D_4  S_4  
     e( 34 - 34) =      7.50885  eV     1   --> B_1  D_3  S_3  
     e( 35 - 35) =      7.73599  eV     1   --> B_2  D_4  S_4  
     e( 36 - 36) =      7.85440  eV     1   --> A_1  D_1  S_1  
     e( 37 - 37) =      8.02978  eV     1   --> A_1  D_1  S_1  
     e( 38 - 38) =      8.08544  eV     1   --> B_2  D_4  S_4  
     e( 39 - 39) =      8.15480  eV     1   --> B_1  D_3  S_3  
     e( 40 - 40) =      8.16884  eV     1   --> A_2  D_2  S_2  
     e( 41 - 41) =      8.49484  eV     1   --> A_1  D_1  S_1  
     e( 42 - 42) =      8.55953  eV     1   --> B_2  D_4  S_4  
     e( 43 - 43) =      8.75374  eV     1   --> B_1  D_3  S_3  
     e( 44 - 44) =      8.84314  eV     1   --> A_2  D_2  S_2  
     e( 45 - 45) =      8.87046  eV     1   --> A_1  D_1  S_1  
     e( 46 - 46) =      9.12760  eV     1   --> B_2  D_4  S_4  
     e( 47 - 47) =      9.24469  eV     1   --> B_1  D_3  S_3  
     e( 48 - 48) =      9.40060  eV     1   --> A_1  D_1  S_1  
     e( 49 - 49) =      9.58669  eV     1   --> B_1  D_3  S_3  
     e( 50 - 50) =      9.82683  eV     1   --> A_1  D_1  S_1  
     e( 51 - 51) =      9.85094  eV     1   --> B_2  D_4  S_4  
     e( 52 - 52) =     10.04449  eV     1   --> B_2  D_4  S_4  
     e( 53 - 53) =     10.17362  eV     1   --> A_2  D_2  S_2  
     e( 54 - 54) =     10.48630  eV     1   --> B_2  D_4  S_4  
     e( 55 - 55) =     10.99698  eV     1   --> A_1  D_1  S_1  
     e( 56 - 56) =     13.82590  eV     1   --> A_1  D_1  S_1  
     e( 57 - 57) =     14.16671  eV     1   --> A_1  D_1  S_1  
     e( 58 - 58) =     15.30309  eV     1   --> A_1  D_1  S_1  
     e( 59 - 59) =     15.32095  eV     1   --> B_2  D_4  S_4  
     e( 60 - 60) =     15.93210  eV     1   --> B_1  D_3  S_3  
     e( 61 - 61) =     16.14138  eV     1   --> A_1  D_1  S_1  
     e( 62 - 62) =     17.18175  eV     1   --> B_2  D_4  S_4  
     e( 63 - 63) =     17.23927  eV     1   --> A_1  D_1  S_1  
     e( 64 - 64) =     17.62676  eV     1   --> A_1  D_1  S_1  
     e( 65 - 65) =     17.66918  eV     1   --> B_2  D_4  S_4  
     e( 66 - 66) =     17.85376  eV     1   --> B_2  D_4  S_4  
     e( 67 - 67) =     17.99767  eV     1   --> A_2  D_2  S_2  
     e( 68 - 68) =     18.59307  eV     1   --> A_1  D_1  S_1  
     e( 69 - 69) =     18.78256  eV     1   --> B_1  D_3  S_3  
     e( 70 - 70) =     19.38751  eV     1   --> B_1  D_3  S_3  
     e( 71 - 71) =     19.40569  eV     1   --> B_2  D_4  S_4  
     e( 72 - 72) =     19.48642  eV     1   --> A_2  D_2  S_2  
     e( 73 - 73) =     19.66992  eV     1   --> A_2  D_2  S_2  
     e( 74 - 74) =     20.48786  eV     1   --> B_2  D_4  S_4  
     e( 75 - 75) =     20.76762  eV     1   --> A_1  D_1  S_1  
     e( 76 - 76) =     21.30791  eV     1   --> A_1  D_1  S_1  
     e( 77 - 77) =     21.92371  eV     1   --> B_1  D_3  S_3  
     e( 78 - 78) =     22.03258  eV     1   --> A_1  D_1  S_1  
     e( 79 - 79) =     23.61159  eV     1   --> B_2  D_4  S_4  
     e( 80 - 80) =     23.95611  eV     1   --> B_1  D_3  S_3  
     e( 81 - 81) =     24.06087  eV     1   --> B_2  D_4  S_4  
     e( 82 - 82) =     24.22879  eV     1   --> A_1  D_1  S_1  

 **************************************************************************

 **************************************************************************

                    xk=(   0.00000,   0.17500,   0.00000  )

     Band symmetry, C_2v (mm2)  point group:

     e(  1 -  1) =    -29.98088  eV     1   --> A_1  D_1  S_1  
     e(  2 -  2) =    -14.73315  eV     1   --> A_1  D_1  S_1  
     e(  3 -  3) =    -14.69770  eV     1   --> B_2  D_4  S_4  
     e(  4 -  4) =    -10.78261  eV     1   --> B_2  D_4  S_4  
     e(  5 -  5) =    -10.36072  eV     1   --> A_1  D_1  S_1  
     e(  6 -  6) =    -10.07399  eV     1   --> B_1  D_3  S_3  
     e(  7 -  7) =     -7.64520  eV     1   --> A_1  D_1  S_1  
     e(  8 -  8) =     -6.71300  eV     1   --> B_2  D_4  S_4  
     e(  9 -  9) =     -6.60425  eV     1   --> A_1  D_1  S_1  
     e( 10 - 10) =     -6.46009  eV     1   --> A_1  D_1  S_1  
     e( 11 - 11) =     -6.28471  eV     1   --> B_2  D_4  S_4  
     e( 12 - 12) =     -5.73816  eV     1   --> B_2  D_4  S_4  
     e( 13 - 13) =     -5.67174  eV     1   --> A_1  D_1  S_1  
     e( 14 - 14) =      0.00492  eV     1   --> B_2  D_4  S_4  
     e( 15 - 15) =      0.08777  eV     1   --> A_1  D_1  S_1  
     e( 16 - 16) =      0.30240  eV     1   --> A_1  D_1  S_1  
     e( 17 - 17) =      0.37288  eV     1   --> B_2  D_4  S_4  
     e( 18 - 18) =      0.43908  eV     1   --> B_1  D_3  S_3  
     e( 19 - 19) =      0.50681  eV     1   --> A_2  D_2  S_2  
     e( 20 - 20) =      4.98039  eV     1   --> A_1  D_1  S_1  
     e( 21 - 21) =      5.00663  eV     1   --> B_2  D_4  S_4  
     e( 22 - 22) =      5.29594  eV     1   --> A_2  D_2  S_2  
     e( 23 - 23) =      5.44817  eV     1   --> A_1  D_1  S_1  
     e( 24 - 24) =      5.58865  eV     1   --> B_1  D_3  S_3  
     e( 25 - 25) =      5.68560  eV     1   --> A_1  D_1  S_1  
     e( 26 - 26) =      5.93002  eV     1   --> A_1  D_1  S_1  
     e( 27 - 27) =      6.52802  eV     1   --> A_1  D_1  S_1  
     e( 28 - 28) =      6.59137  eV     1   --> B_2  D_4  S_4  
     e( 29 - 29) =      6.82484  eV     1   --> B_2  D_4  S_4  
     e( 30 - 30) =      7.14711  eV     1   --> A_2  D_2  S_2  
     e( 31 - 31) =      7.18981  eV     1   --> B_1  D_3  S_3  
     e( 32 - 32) =      7.25345  eV     1   --> A_2  D_2  S_2  
     e( 33 - 33) =      7.29675  eV     1   --> B_2  D_4  S_4  
     e( 34 - 34) =      7.43131  eV     1   --> B_1  D_3  S_3  
     e( 35 - 35) =      7.74331  eV     1   --> B_2  D_4  S_4  
     e( 36 - 36) =      7.85139  eV     1   --> A_1  D_1  S_1  
     e( 37 - 37) =      7.97994  eV     1   --> B_2  D_4  S_4  
     e( 38 - 38) =      8.00387  eV     1   --> A_1  D_1  S_1  
     e( 39 - 39) =      8.13934  eV     1   --> B_1  D_3  S_3  
     e( 40 - 40) =      8.20379  eV     1   --> A_2  D_2  S_2  
     e( 41 - 41) =      8.43379  eV     1   --> A_1  D_1  S_1  
     e( 42 - 42) =      8.67098  eV     1   --> B_2  D_4  S_4  
     e( 43 - 43) =      8.80479  eV     1   --> B_1  D_3  S_3  
     e( 44 - 44) =      8.86468  eV     1   --> A_2  D_2  S_2  
     e( 45 - 45) =      8.89048  eV     1   --> A_1  D_1  S_1  
     e( 46 - 46) =      9.20874  eV     1   --> B_2  D_4  S_4  
     e( 47 - 47) =      9.31741  eV     1   --> B_1  D_3  S_3  
     e( 48 - 48) =      9.35830  eV     1   --> A_1  D_1  S_1  
     e( 49 - 49) =      9.57104  eV     1   --> B_1  D_3  S_3  
     e( 50 - 50) =      9.83242  eV     1   --> A_1  D_1  S_1  
     e( 51 - 51) =      9.89246  eV     1   --> B_2  D_4  S_4  
     e( 52 - 52) =     10.00620  eV     1   --> B_2  D_4  S_4  
     e( 53 - 53) =     10.12357  eV     1   --> A_2  D_2  S_2  
     e( 54 - 54) =     10.52549  eV     1   --> B_2  D_4  S_4  
     e( 55 - 55) =     11.18976  eV     1   --> A_1  D_1  S_1  
     e( 56 - 56) =     13.98701  eV     1   --> A_1  D_1  S_1  
     e( 57 - 57) =     14.25314  eV     1   --> A_1  D_1  S_1  
     e( 58 - 58) =     15.44135  eV     1   --> A_1  D_1  S_1  
     e( 59 - 59) =     15.49299  eV     1   --> B_2  D_4  S_4  
     e( 60 - 60) =     15.91252  eV     1   --> B_1  D_3  S_3  
     e( 61 - 61) =     16.17322  eV     1   --> A_1  D_1  S_1  
     e( 62 - 62) =     17.22752  eV     1   --> A_1  D_1  S_1  
     e( 63 - 63) =     17.29398  eV     1   --> B_2  D_4  S_4  
     e( 64 - 64) =     17.69600  eV     1   --> A_1  D_1  S_1  
     e( 65 - 65) =     17.73199  eV     1   --> B_2  D_4  S_4  
     e( 66 - 66) =     17.81598  eV     1   --> B_2  D_4  S_4  
     e( 67 - 67) =     18.01362  eV     1   --> A_2  D_2  S_2  
     e( 68 - 68) =     18.59426  eV     1   --> A_1  D_1  S_1  
     e( 69 - 69) =     18.80879  eV     1   --> B_1  D_3  S_3  
     e( 70 - 70) =     19.36676  eV     1   --> B_2  D_4  S_4  
     e( 71 - 71) =     19.48087  eV     1   --> B_1  D_3  S_3  
     e( 72 - 72) =     19.54038  eV     1   --> A_2  D_2  S_2  
     e( 73 - 73) =     19.73577  eV     1   --> A_2  D_2  S_2  
     e( 74 - 74) =     20.62209  eV     1   --> B_2  D_4  S_4  
     e( 75 - 75) =     20.81820  eV     1   --> A_1  D_1  S_1  
     e( 76 - 76) =     21.30330  eV     1   --> A_1  D_1  S_1  
     e( 77 - 77) =     21.79815  eV     1   --> B_1  D_3  S_3  
     e( 78 - 78) =     21.95219  eV     1   --> A_1  D_1  S_1  
     e( 79 - 79) =     23.66424  eV     1   --> B_2  D_4  S_4  
     e( 80 - 80) =     24.11606  eV     1   --> B_2  D_4  S_4  
     e( 81 - 81) =     24.13610  eV     1   --> B_1  D_3  S_3  
     e( 82 - 82) =     24.30681  eV     1   --> A_1  D_1  S_1  

 **************************************************************************

 **************************************************************************

                    xk=(   0.00000,   0.20000,   0.00000  )

     Band symmetry, C_2v (mm2)  point group:

     e(  1 -  1) =    -29.97941  eV     1   --> A_1  D_1  S_1  
     e(  2 -  2) =    -14.72005  eV     1   --> A_1  D_1  S_1  
     e(  3 -  3) =    -14.68492  eV     1   --> B_2  D_4  S_4  
     e(  4 -  4) =    -10.75787  eV     1   --> B_2  D_4  S_4  
     e(  5 -  5) =    -10.42491  eV     1   --> A_1  D_1  S_1  
     e(  6 -  6) =    -10.07200  eV     1   --> B_1  D_3  S_3  
     e(  7 -  7) =     -7.57959  eV     1   --> A_1  D_1  S_1  
     e(  8 -  8) =     -6.74842  eV     1   --> B_2  D_4  S_4  
     e(  9 -  9) =     -6.58448  eV     1   --> A_1  D_1  S_1  
     e( 10 - 10) =     -6.43901  eV     1   --> A_1  D_1  S_1  
     e( 11 - 11) =     -6.28430  eV     1   --> B_2  D_4  S_4  
     e( 12 - 12) =     -5.77395  eV     1   --> B_2  D_4  S_4  
     e( 13 - 13) =     -5.71068  eV     1   --> A_1  D_1  S_1  
     e( 14 - 14) =      0.00617  eV     1   --> B_2  D_4  S_4  
     e( 15 - 15) =      0.09958  eV     1   --> A_1  D_1  S_1  
     e( 16 - 16) =      0.30332  eV     1   --> A_1  D_1  S_1  
     e( 17 - 17) =      0.38116  eV     1   --> B_2  D_4  S_4  
     e( 18 - 18) =      0.46209  eV     1   --> B_1  D_3  S_3  
     e( 19 - 19) =      0.53099  eV     1   --> A_2  D_2  S_2  
     e( 20 - 20) =      4.88000  eV     1   --> A_1  D_1  S_1  
     e( 21 - 21) =      4.94821  eV     1   --> B_2  D_4  S_4  
     e( 22 - 22) =      5.32700  eV     1   --> A_2  D_2  S_2  
     e( 23 - 23) =      5.40174  eV     1   --> A_1  D_1  S_1  
     e( 24 - 24) =      5.59527  eV     1   --> B_1  D_3  S_3  
     e( 25 - 25) =      5.67473  eV     1   --> A_1  D_1  S_1  
     e( 26 - 26) =      5.81488  eV     1   --> A_1  D_1  S_1  
     e( 27 - 27) =      6.48702  eV     1   --> B_2  D_4  S_4  
     e( 28 - 28) =      6.52054  eV     1   --> A_1  D_1  S_1  
     e( 29 - 29) =      6.81317  eV     1   --> B_2  D_4  S_4  
     e( 30 - 30) =      7.06664  eV     1   --> A_2  D_2  S_2  
     e( 31 - 31) =      7.10237  eV     1   --> B_1  D_3  S_3  
     e( 32 - 32) =      7.20631  eV     1   --> A_2  D_2  S_2  
     e( 33 - 33) =      7.28148  eV     1   --> B_2  D_4  S_4  
     e( 34 - 34) =      7.35644  eV     1   --> B_1  D_3  S_3  
     e( 35 - 35) =      7.74192  eV     1   --> B_2  D_4  S_4  
     e( 36 - 36) =      7.83627  eV     1   --> A_1  D_1  S_1  
     e( 37 - 37) =      7.88613  eV     1   --> B_2  D_4  S_4  
     e( 38 - 38) =      7.97495  eV     1   --> A_1  D_1  S_1  
     e( 39 - 39) =      8.11161  eV     1   --> B_1  D_3  S_3  
     e( 40 - 40) =      8.23261  eV     1   --> A_2  D_2  S_2  
     e( 41 - 41) =      8.39738  eV     1   --> A_1  D_1  S_1  
     e( 42 - 42) =      8.78928  eV     1   --> B_2  D_4  S_4  
     e( 43 - 43) =      8.84527  eV     1   --> B_1  D_3  S_3  
     e( 44 - 44) =      8.88899  eV     1   --> A_2  D_2  S_2  
     e( 45 - 45) =      8.90572  eV     1   --> A_1  D_1  S_1  
     e( 46 - 46) =      9.28856  eV     1   --> B_2  D_4  S_4  
     e( 47 - 47) =      9.29381  eV     1   --> A_1  D_1  S_1  
     e( 48 - 48) =      9.39169  eV     1   --> B_1  D_3  S_3  
     e( 49 - 49) =      9.56904  eV     1   --> B_1  D_3  S_3  
     e( 50 - 50) =      9.85171  eV     1   --> A_1  D_1  S_1  
     e( 51 - 51) =      9.90983  eV     1   --> B_2  D_4  S_4  
     e( 52 - 52) =      9.98361  eV     1   --> B_2  D_4  S_4  
     e( 53 - 53) =     10.07196  eV     1   --> A_2  D_2  S_2  
     e( 54 - 54) =     10.56214  eV     1   --> B_2  D_4  S_4  
     e( 55 - 55) =     11.38113  eV     1   --> A_1  D_1  S_1  
     e( 56 - 56) =     14.15785  eV     1   --> A_1  D_1  S_1  
     e( 57 - 57) =     14.34986  eV     1   --> A_1  D_1  S_1  
     e( 58 - 58) =     15.59359  eV     1   --> A_1  D_1  S_1  
     e( 59 - 59) =     15.68409  eV     1   --> B_2  D_4  S_4  
     e( 60 - 60) =     15.89180  eV     1   --> B_1  D_3  S_3  
     e( 61 - 61) =     16.20120  eV     1   --> A_1  D_1  S_1  
     e( 62 - 62) =     17.20792  eV     1   --> A_1  D_1  S_1  
     e( 63 - 63) =     17.40315  eV     1   --> B_2  D_4  S_4  
     e( 64 - 64) =     17.75996  eV     1   --> B_2  D_4  S_4  
     e( 65 - 65) =     17.78972  eV     1   --> A_1  D_1  S_1  
     e( 66 - 66) =     17.83000  eV     1   --> B_2  D_4  S_4  
     e( 67 - 67) =     18.03378  eV     1   --> A_2  D_2  S_2  
     e( 68 - 68) =     18.58854  eV     1   --> A_1  D_1  S_1  
     e( 69 - 69) =     18.84031  eV     1   --> B_1  D_3  S_3  
     e( 70 - 70) =     19.34315  eV     1   --> B_2  D_4  S_4  
     e( 71 - 71) =     19.55788  eV     1   --> A_2  D_2  S_2  
     e( 72 - 72) =     19.57341  eV     1   --> B_1  D_3  S_3  
     e( 73 - 73) =     19.84144  eV     1   --> A_2  D_2  S_2  
     e( 74 - 74) =     20.76659  eV     1   --> B_2  D_4  S_4  
     e( 75 - 75) =     20.86636  eV     1   --> A_1  D_1  S_1  
     e( 76 - 76) =     21.28229  eV     1   --> A_1  D_1  S_1  
     e( 77 - 77) =     21.65790  eV     1   --> B_1  D_3  S_3  
     e( 78 - 78) =     21.92767  eV     1   --> A_1  D_1  S_1  
     e( 79 - 79) =     23.63661  eV     1   --> B_2  D_4  S_4  
     e( 80 - 80) =     24.21358  eV     1   --> B_2  D_4  S_4  
     e( 81 - 81) =     24.34312  eV     1   --> B_1  D_3  S_3  
     e( 82 - 82) =     24.37547  eV     1   --> A_1  D_1  S_1  

 **************************************************************************

 **************************************************************************

                    xk=(   0.00000,   0.22500,   0.00000  )

     Band symmetry, C_2v (mm2)  point group:

     e(  1 -  1) =    -29.97784  eV     1   --> A_1  D_1  S_1  
     e(  2 -  2) =    -14.70615  eV     1   --> A_1  D_1  S_1  
     e(  3 -  3) =    -14.67137  eV     1   --> B_2  D_4  S_4  
     e(  4 -  4) =    -10.73127  eV     1   --> B_2  D_4  S_4  
     e(  5 -  5) =    -10.48949  eV     1   --> A_1  D_1  S_1  
     e(  6 -  6) =    -10.06989  eV     1   --> B_1  D_3  S_3  
     e(  7 -  7) =     -7.51236  eV     1   --> A_1  D_1  S_1  
     e(  8 -  8) =     -6.79001  eV     1   --> B_2  D_4  S_4  
     e(  9 -  9) =     -6.56531  eV     1   --> A_1  D_1  S_1  
     e( 10 - 10) =     -6.41690  eV     1   --> A_1  D_1  S_1  
     e( 11 - 11) =     -6.27999  eV     1   --> B_2  D_4  S_4  
     e( 12 - 12) =     -5.81136  eV     1   --> B_2  D_4  S_4  
     e( 13 - 13) =     -5.75070  eV     1   --> A_1  D_1  S_1  
     e( 14 - 14) =      0.00873  eV     1   --> B_2  D_4  S_4  
     e( 15 - 15) =      0.11187  eV     1   --> A_1  D_1  S_1  
     e( 16 - 16) =      0.30462  eV     1   --> A_1  D_1  S_1  
     e( 17 - 17) =      0.38926  eV     1   --> B_2  D_4  S_4  
     e( 18 - 18) =      0.48663  eV     1   --> B_1  D_3  S_3  
     e( 19 - 19) =      0.55679  eV     1   --> A_2  D_2  S_2  
     e( 20 - 20) =      4.77913  eV     1   --> A_1  D_1  S_1  
     e( 21 - 21) =      4.88382  eV     1   --> B_2  D_4  S_4  
     e( 22 - 22) =      5.31558  eV     1   --> A_1  D_1  S_1  
     e( 23 - 23) =      5.36187  eV     1   --> A_2  D_2  S_2  
     e( 24 - 24) =      5.60312  eV     1   --> B_1  D_3  S_3  
     e( 25 - 25) =      5.60959  eV     1   --> A_1  D_1  S_1  
     e( 26 - 26) =      5.79584  eV     1   --> A_1  D_1  S_1  
     e( 27 - 27) =      6.38325  eV     1   --> B_2  D_4  S_4  
     e( 28 - 28) =      6.51239  eV     1   --> A_1  D_1  S_1  
     e( 29 - 29) =      6.80185  eV     1   --> B_2  D_4  S_4  
     e( 30 - 30) =      6.98131  eV     1   --> A_2  D_2  S_2  
     e( 31 - 31) =      7.01638  eV     1   --> B_1  D_3  S_3  
     e( 32 - 32) =      7.16022  eV     1   --> A_2  D_2  S_2  
     e( 33 - 33) =      7.27111  eV     1   --> B_2  D_4  S_4  
     e( 34 - 34) =      7.28518  eV     1   --> B_1  D_3  S_3  
     e( 35 - 35) =      7.70362  eV     1   --> B_2  D_4  S_4  
     e( 36 - 36) =      7.80037  eV     1   --> A_1  D_1  S_1  
     e( 37 - 37) =      7.83886  eV     1   --> B_2  D_4  S_4  
     e( 38 - 38) =      7.94857  eV     1   --> A_1  D_1  S_1  
     e( 39 - 39) =      8.07297  eV     1   --> B_1  D_3  S_3  
     e( 40 - 40) =      8.25573  eV     1   --> A_2  D_2  S_2  
     e( 41 - 41) =      8.38892  eV     1   --> A_1  D_1  S_1  
     e( 42 - 42) =      8.87506  eV     1   --> B_1  D_3  S_3  
     e( 43 - 43) =      8.90918  eV     1   --> B_2  D_4  S_4  
     e( 44 - 44) =      8.91351  eV     1   --> A_1  D_1  S_1  
     e( 45 - 45) =      8.91542  eV     1   --> A_2  D_2  S_2  
     e( 46 - 46) =      9.22237  eV     1   --> A_1  D_1  S_1  
     e( 47 - 47) =      9.36356  eV     1   --> B_2  D_4  S_4  
     e( 48 - 48) =      9.45517  eV     1   --> B_1  D_3  S_3  
     e( 49 - 49) =      9.59184  eV     1   --> B_1  D_3  S_3  
     e( 50 - 50) =      9.87440  eV     1   --> A_1  D_1  S_1  
     e( 51 - 51) =      9.88535  eV     1   --> B_2  D_4  S_4  
     e( 52 - 52) =      9.99891  eV     1   --> B_2  D_4  S_4  
     e( 53 - 53) =     10.02051  eV     1   --> A_2  D_2  S_2  
     e( 54 - 54) =     10.59350  eV     1   --> B_2  D_4  S_4  
     e( 55 - 55) =     11.56615  eV     1   --> A_1  D_1  S_1  
     e( 56 - 56) =     14.32272  eV     1   --> A_1  D_1  S_1  
     e( 57 - 57) =     14.46730  eV     1   --> A_1  D_1  S_1  
     e( 58 - 58) =     15.75494  eV     1   --> A_1  D_1  S_1  
     e( 59 - 59) =     15.87053  eV     1   --> B_1  D_3  S_3  
     e( 60 - 60) =     15.89044  eV     1   --> B_2  D_4  S_4  
     e( 61 - 61) =     16.22528  eV     1   --> A_1  D_1  S_1  
     e( 62 - 62) =     17.19175  eV     1   --> A_1  D_1  S_1  
     e( 63 - 63) =     17.47060  eV     1   --> B_2  D_4  S_4  
     e( 64 - 64) =     17.77477  eV     1   --> B_2  D_4  S_4  
     e( 65 - 65) =     17.88996  eV     1   --> A_1  D_1  S_1  
     e( 66 - 66) =     17.91302  eV     1   --> B_2  D_4  S_4  
     e( 67 - 67) =     18.05783  eV     1   --> A_2  D_2  S_2  
     e( 68 - 68) =     18.58113  eV     1   --> A_1  D_1  S_1  
     e( 69 - 69) =     18.87669  eV     1   --> B_1  D_3  S_3  
     e( 70 - 70) =     19.33418  eV     1   --> B_2  D_4  S_4  
     e( 71 - 71) =     19.56090  eV     1   --> A_2  D_2  S_2  
     e( 72 - 72) =     19.66104  eV     1   --> B_1  D_3  S_3  
     e( 73 - 73) =     19.96064  eV     1   --> A_2  D_2  S_2  
     e( 74 - 74) =     20.90646  eV     1   --> A_1  D_1  S_1  
     e( 75 - 75) =     20.92050  eV     1   --> B_2  D_4  S_4  
     e( 76 - 76) =     21.26069  eV     1   --> A_1  D_1  S_1  
     e( 77 - 77) =     21.50825  eV     1   --> B_1  D_3  S_3  
     e( 78 - 78) =     21.94945  eV     1   --> A_1  D_1  S_1  
     e( 79 - 79) =     23.53746  eV     1   --> B_2  D_4  S_4  
     e( 80 - 80) =     24.34688  eV     1   --> B_2  D_4  S_4  
     e( 81 - 81) =     24.43757  eV     1   --> A_1  D_1  S_1  
     e( 82 - 82) =     24.57425  eV     1   --> B_1  D_3  S_3  

 **************************************************************************

 **************************************************************************

                    xk=(   0.00000,   0.25000,   0.00000  )

     Band symmetry, C_2v (mm2)  point group:

     e(  1 -  1) =    -29.97624  eV     1   --> A_1  D_1  S_1  
     e(  2 -  2) =    -14.69181  eV     1   --> A_1  D_1  S_1  
     e(  3 -  3) =    -14.65739  eV     1   --> B_2  D_4  S_4  
     e(  4 -  4) =    -10.70338  eV     1   --> B_2  D_4  S_4  
     e(  5 -  5) =    -10.55296  eV     1   --> A_1  D_1  S_1  
     e(  6 -  6) =    -10.06773  eV     1   --> B_1  D_3  S_3  
     e(  7 -  7) =     -7.44485  eV     1   --> A_1  D_1  S_1  
     e(  8 -  8) =     -6.83635  eV     1   --> B_2  D_4  S_4  
     e(  9 -  9) =     -6.54824  eV     1   --> A_1  D_1  S_1  
     e( 10 - 10) =     -6.39374  eV     1   --> A_1  D_1  S_1  
     e( 11 - 11) =     -6.27236  eV     1   --> B_2  D_4  S_4  
     e( 12 - 12) =     -5.84946  eV     1   --> B_2  D_4  S_4  
     e( 13 - 13) =     -5.79061  eV     1   --> A_1  D_1  S_1  
     e( 14 - 14) =      0.01270  eV     1   --> B_2  D_4  S_4  
     e( 15 - 15) =      0.12429  eV     1   --> A_1  D_1  S_1  
     e( 16 - 16) =      0.30626  eV     1   --> A_1  D_1  S_1  
     e( 17 - 17) =      0.39689  eV     1   --> B_2  D_4  S_4  
     e( 18 - 18) =      0.51214  eV     1   --> B_1  D_3  S_3  
     e( 19 - 19) =      0.58365  eV     1   --> A_2  D_2  S_2  
     e( 20 - 20) =      4.67971  eV     1   --> A_1  D_1  S_1  
     e( 21 - 21) =      4.81511  eV     1   --> B_2  D_4  S_4  
     e( 22 - 22) =      5.18875  eV     1   --> A_1  D_1  S_1  
     e( 23 - 23) =      5.40033  eV     1   --> A_2  D_2  S_2  
     e( 24 - 24) =      5.55540  eV     1   --> A_1  D_1  S_1  
     e( 25 - 25) =      5.61222  eV     1   --> B_1  D_3  S_3  
     e( 26 - 26) =      5.81050  eV     1   --> A_1  D_1  S_1  
     e( 27 - 27) =      6.28264  eV     1   --> B_2  D_4  S_4  
     e( 28 - 28) =      6.50657  eV     1   --> A_1  D_1  S_1  
     e( 29 - 29) =      6.79014  eV     1   --> B_2  D_4  S_4  
     e( 30 - 30) =      6.89440  eV     1   --> A_2  D_2  S_2  
     e( 31 - 31) =      6.93282  eV     1   --> B_1  D_3  S_3  
     e( 32 - 32) =      7.11323  eV     1   --> A_2  D_2  S_2  
     e( 33 - 33) =      7.21831  eV     1   --> B_1  D_3  S_3  
     e( 34 - 34) =      7.26307  eV     1   --> B_2  D_4  S_4  
     e( 35 - 35) =      7.62953  eV     1   --> B_2  D_4  S_4  
     e( 36 - 36) =      7.74281  eV     1   --> A_1  D_1  S_1  
     e( 37 - 37) =      7.84077  eV     1   --> B_2  D_4  S_4  
     e( 38 - 38) =      7.92750  eV     1   --> A_1  D_1  S_1  
     e( 39 - 39) =      8.02534  eV     1   --> B_1  D_3  S_3  
     e( 40 - 40) =      8.27383  eV     1   --> A_2  D_2  S_2  
     e( 41 - 41) =      8.40561  eV     1   --> A_1  D_1  S_1  
     e( 42 - 42) =      8.89523  eV     1   --> B_1  D_3  S_3  
     e( 43 - 43) =      8.90844  eV     1   --> A_1  D_1  S_1  
     e( 44 - 44) =      8.94307  eV     1   --> A_2  D_2  S_2  
     e( 45 - 45) =      9.02794  eV     1   --> B_2  D_4  S_4  
     e( 46 - 46) =      9.15823  eV     1   --> A_1  D_1  S_1  
     e( 47 - 47) =      9.42992  eV     1   --> B_2  D_4  S_4  
     e( 48 - 48) =      9.49613  eV     1   --> B_1  D_3  S_3  
     e( 49 - 49) =      9.64822  eV     1   --> B_1  D_3  S_3  
     e( 50 - 50) =      9.84698  eV     1   --> B_2  D_4  S_4  
     e( 51 - 51) =      9.89424  eV     1   --> A_1  D_1  S_1  
     e( 52 - 52) =      9.97060  eV     1   --> A_2  D_2  S_2  
     e( 53 - 53) =     10.02891  eV     1   --> B_2  D_4  S_4  
     e( 54 - 54) =     10.61758  eV     1   --> B_2  D_4  S_4  
     e( 55 - 55) =     11.74069  eV     1   --> A_1  D_1  S_1  
     e( 56 - 56) =     14.45631  eV     1   --> A_1  D_1  S_1  
     e( 57 - 57) =     14.62549  eV     1   --> A_1  D_1  S_1  
     e( 58 - 58) =     15.84926  eV     1   --> B_1  D_3  S_3  
     e( 59 - 59) =     15.91543  eV     1   --> A_1  D_1  S_1  
     e( 60 - 60) =     16.10742  eV     1   --> B_2  D_4  S_4  
     e( 61 - 61) =     16.25108  eV     1   --> A_1  D_1  S_1  
     e( 62 - 62) =     17.18213  eV     1   --> A_1  D_1  S_1  
     e( 63 - 63) =     17.45741  eV     1   --> B_2  D_4  S_4  
     e( 64 - 64) =     17.86023  eV     1   --> B_2  D_4  S_4  
     e( 65 - 65) =     17.98374  eV     1   --> A_1  D_1  S_1  
     e( 66 - 66) =     18.02182  eV     1   --> B_2  D_4  S_4  
     e( 67 - 67) =     18.08517  eV     1   --> A_2  D_2  S_2  
     e( 68 - 68) =     18.57847  eV     1   --> A_1  D_1  S_1  
     e( 69 - 69) =     18.91748  eV     1   --> B_1  D_3  S_3  
     e( 70 - 70) =     19.33644  eV     1   --> B_2  D_4  S_4  
     e( 71 - 71) =     19.55922  eV     1   --> A_2  D_2  S_2  
     e( 72 - 72) =     19.73968  eV     1   --> B_1  D_3  S_3  
     e( 73 - 73) =     20.07944  eV     1   --> A_2  D_2  S_2  
     e( 74 - 74) =     20.93533  eV     1   --> A_1  D_1  S_1  
     e( 75 - 75) =     21.08292  eV     1   --> B_2  D_4  S_4  
     e( 76 - 76) =     21.25789  eV     1   --> A_1  D_1  S_1  
     e( 77 - 77) =     21.35500  eV     1   --> B_1  D_3  S_3  
     e( 78 - 78) =     22.00230  eV     1   --> A_1  D_1  S_1  
     e( 79 - 79) =     23.39690  eV     1   --> B_2  D_4  S_4  
     e( 80 - 80) =     24.48972  eV     1   --> A_1  D_1  S_1  
     e( 81 - 81) =     24.49305  eV     1   --> B_2  D_4  S_4  
     e( 82 - 82) =     24.82529  eV     1   --> B_1  D_3  S_3  

 **************************************************************************

 **************************************************************************

                    xk=(   0.00000,   0.27500,   0.00000  )

     Band symmetry, C_2v (mm2)  point group:

     e(  1 -  1) =    -29.97464  eV     1   --> A_1  D_1  S_1  
     e(  2 -  2) =    -14.67736  eV     1   --> A_1  D_1  S_1  
     e(  3 -  3) =    -14.64331  eV     1   --> B_2  D_4  S_4  
     e(  4 -  4) =    -10.67484  eV     1   --> B_2  D_4  S_4  
     e(  5 -  5) =    -10.61395  eV     1   --> A_1  D_1  S_1  
     e(  6 -  6) =    -10.06557  eV     1   --> B_1  D_3  S_3  
     e(  7 -  7) =     -7.37825  eV     1   --> A_1  D_1  S_1  
     e(  8 -  8) =     -6.88570  eV     1   --> B_2  D_4  S_4  
     e(  9 -  9) =     -6.53483  eV     1   --> A_1  D_1  S_1  
     e( 10 - 10) =     -6.36930  eV     1   --> A_1  D_1  S_1  
     e( 11 - 11) =     -6.26222  eV     1   --> B_2  D_4  S_4  
     e( 12 - 12) =     -5.88735  eV     1   --> B_2  D_4  S_4  
     e( 13 - 13) =     -5.82933  eV     1   --> A_1  D_1  S_1  
     e( 14 - 14) =      0.01808  eV     1   --> B_2  D_4  S_4  
     e( 15 - 15) =      0.13649  eV     1   --> A_1  D_1  S_1  
     e( 16 - 16) =      0.30822  eV     1   --> A_1  D_1  S_1  
     e( 17 - 17) =      0.40377  eV     1   --> B_2  D_4  S_4  
     e( 18 - 18) =      0.53801  eV     1   --> B_1  D_3  S_3  
     e( 19 - 19) =      0.61092  eV     1   --> A_2  D_2  S_2  
     e( 20 - 20) =      4.58350  eV     1   --> A_1  D_1  S_1  
     e( 21 - 21) =      4.74419  eV     1   --> B_2  D_4  S_4  
     e( 22 - 22) =      5.04482  eV     1   --> A_1  D_1  S_1  
     e( 23 - 23) =      5.44216  eV     1   --> A_2  D_2  S_2  
     e( 24 - 24) =      5.52168  eV     1   --> A_1  D_1  S_1  
     e( 25 - 25) =      5.62254  eV     1   --> B_1  D_3  S_3  
     e( 26 - 26) =      5.82734  eV     1   --> A_1  D_1  S_1  
     e( 27 - 27) =      6.18707  eV     1   --> B_2  D_4  S_4  
     e( 28 - 28) =      6.50607  eV     1   --> A_1  D_1  S_1  
     e( 29 - 29) =      6.77789  eV     1   --> B_2  D_4  S_4  
     e( 30 - 30) =      6.80748  eV     1   --> A_2  D_2  S_2  
     e( 31 - 31) =      6.85255  eV     1   --> B_1  D_3  S_3  
     e( 32 - 32) =      7.06534  eV     1   --> A_2  D_2  S_2  
     e( 33 - 33) =      7.15650  eV     1   --> B_1  D_3  S_3  
     e( 34 - 34) =      7.25400  eV     1   --> B_2  D_4  S_4  
     e( 35 - 35) =      7.55508  eV     1   --> B_2  D_4  S_4  
     e( 36 - 36) =      7.67076  eV     1   --> A_1  D_1  S_1  
     e( 37 - 37) =      7.85966  eV     1   --> B_2  D_4  S_4  
     e( 38 - 38) =      7.90979  eV     1   --> A_1  D_1  S_1  
     e( 39 - 39) =      7.97111  eV     1   --> B_1  D_3  S_3  
     e( 40 - 40) =      8.28770  eV     1   --> A_2  D_2  S_2  
     e( 41 - 41) =      8.44019  eV     1   --> A_1  D_1  S_1  
     e( 42 - 42) =      8.88368  eV     1   --> A_1  D_1  S_1  
     e( 43 - 43) =      8.90768  eV     1   --> B_1  D_3  S_3  
     e( 44 - 44) =      8.97111  eV     1   --> A_2  D_2  S_2  
     e( 45 - 45) =      9.11462  eV     1   --> A_1  D_1  S_1  
     e( 46 - 46) =      9.14354  eV     1   --> B_2  D_4  S_4  
     e( 47 - 47) =      9.48361  eV     1   --> B_2  D_4  S_4  
     e( 48 - 48) =      9.52365  eV     1   --> B_1  D_3  S_3  
     e( 49 - 49) =      9.72503  eV     1   --> B_1  D_3  S_3  
     e( 50 - 50) =      9.81097  eV     1   --> B_2  D_4  S_4  
     e( 51 - 51) =      9.90816  eV     1   --> A_1  D_1  S_1  
     e( 52 - 52) =      9.92336  eV     1   --> A_2  D_2  S_2  
     e( 53 - 53) =     10.06278  eV     1   --> B_2  D_4  S_4  
     e( 54 - 54) =     10.63316  eV     1   --> B_2  D_4  S_4  
     e( 55 - 55) =     11.90163  eV     1   --> A_1  D_1  S_1  
     e( 56 - 56) =     14.56278  eV     1   --> A_1  D_1  S_1  
     e( 57 - 57) =     14.81501  eV     1   --> A_1  D_1  S_1  
     e( 58 - 58) =     15.82852  eV     1   --> B_1  D_3  S_3  
     e( 59 - 59) =     16.04877  eV     1   --> A_1  D_1  S_1  
     e( 60 - 60) =     16.30132  eV     1   --> A_1  D_1  S_1  
     e( 61 - 61) =     16.32966  eV     1   --> B_2  D_4  S_4  
     e( 62 - 62) =     17.17732  eV     1   --> A_1  D_1  S_1  
     e( 63 - 63) =     17.39595  eV     1   --> B_2  D_4  S_4  
     e( 64 - 64) =     17.97793  eV     1   --> B_2  D_4  S_4  
     e( 65 - 65) =     18.06173  eV     1   --> A_1  D_1  S_1  
     e( 66 - 66) =     18.11502  eV     1   --> A_2  D_2  S_2  
     e( 67 - 67) =     18.16452  eV     1   --> B_2  D_4  S_4  
     e( 68 - 68) =     18.58656  eV     1   --> A_1  D_1  S_1  
     e( 69 - 69) =     18.96230  eV     1   --> B_1  D_3  S_3  
     e( 70 - 70) =     19.34555  eV     1   --> B_2  D_4  S_4  
     e( 71 - 71) =     19.55606  eV     1   --> A_2  D_2  S_2  
     e( 72 - 72) =     19.80536  eV     1   --> B_1  D_3  S_3  
     e( 73 - 73) =     20.19098  eV     1   --> A_2  D_2  S_2  
     e( 74 - 74) =     20.95818  eV     1   --> A_1  D_1  S_1  
     e( 75 - 75) =     21.20420  eV     1   --> B_1  D_3  S_3  
     e( 76 - 76) =     21.25224  eV     1   --> B_2  D_4  S_4  
     e( 77 - 77) =     21.28199  eV     1   --> A_1  D_1  S_1  
     e( 78 - 78) =     22.07449  eV     1   --> A_1  D_1  S_1  
     e( 79 - 79) =     23.23943  eV     1   --> B_2  D_4  S_4  
     e( 80 - 80) =     24.51845  eV     1   --> A_1  D_1  S_1  
     e( 81 - 81) =     24.63352  eV     1   --> B_2  D_4  S_4  
     e( 82 - 82) =     24.98520  eV     1   --> A_1  D_1  S_1  

 **************************************************************************

 **************************************************************************

                    xk=(   0.00000,   0.30000,   0.00000  )

     Band symmetry, C_2v (mm2)  point group:

     e(  1 -  1) =    -29.97308  eV     1   --> A_1  D_1  S_1  
     e(  2 -  2) =    -14.66315  eV     1   --> A_1  D_1  S_1  
     e(  3 -  3) =    -14.62948  eV     1   --> B_2  D_4  S_4  
     e(  4 -  4) =    -10.67129  eV     1   --> A_1  D_1  S_1  
     e(  5 -  5) =    -10.64631  eV     1   --> B_2  D_4  S_4  
     e(  6 -  6) =    -10.06347  eV     1   --> B_1  D_3  S_3  
     e(  7 -  7) =     -7.31363  eV     1   --> A_1  D_1  S_1  
     e(  8 -  8) =     -6.93618  eV     1   --> B_2  D_4  S_4  
     e(  9 -  9) =     -6.52637  eV     1   --> A_1  D_1  S_1  
     e( 10 - 10) =     -6.34332  eV     1   --> A_1  D_1  S_1  
     e( 11 - 11) =     -6.25046  eV     1   --> B_2  D_4  S_4  
     e( 12 - 12) =     -5.92413  eV     1   --> B_2  D_4  S_4  
     e( 13 - 13) =     -5.86603  eV     1   --> A_1  D_1  S_1  
     e( 14 - 14) =      0.02472  eV     1   --> B_2  D_4  S_4  
     e( 15 - 15) =      0.14816  eV     1   --> A_1  D_1  S_1  
     e( 16 - 16) =      0.31041  eV     1   --> A_1  D_1  S_1  
     e( 17 - 17) =      0.40970  eV     1   --> B_2  D_4  S_4  
     e( 18 - 18) =      0.56362  eV     1   --> B_1  D_3  S_3  
     e( 19 - 19) =      0.63794  eV     1   --> A_2  D_2  S_2  
     e( 20 - 20) =      4.49200  eV     1   --> A_1  D_1  S_1  
     e( 21 - 21) =      4.67330  eV     1   --> B_2  D_4  S_4  
     e( 22 - 22) =      4.90203  eV     1   --> A_1  D_1  S_1  
     e( 23 - 23) =      5.48709  eV     1   --> A_2  D_2  S_2  
     e( 24 - 24) =      5.49821  eV     1   --> A_1  D_1  S_1  
     e( 25 - 25) =      5.63399  eV     1   --> B_1  D_3  S_3  
     e( 26 - 26) =      5.84002  eV     1   --> A_1  D_1  S_1  
     e( 27 - 27) =      6.09806  eV     1   --> B_2  D_4  S_4  
     e( 28 - 28) =      6.51324  eV     1   --> A_1  D_1  S_1  
     e( 29 - 29) =      6.72150  eV     1   --> A_2  D_2  S_2  
     e( 30 - 30) =      6.76515  eV     1   --> B_2  D_4  S_4  
     e( 31 - 31) =      6.77642  eV     1   --> B_1  D_3  S_3  
     e( 32 - 32) =      7.01735  eV     1   --> A_2  D_2  S_2  
     e( 33 - 33) =      7.10030  eV     1   --> B_1  D_3  S_3  
     e( 34 - 34) =      7.23978  eV     1   --> B_2  D_4  S_4  
     e( 35 - 35) =      7.49395  eV     1   --> B_2  D_4  S_4  
     e( 36 - 36) =      7.59134  eV     1   --> A_1  D_1  S_1  
     e( 37 - 37) =      7.88496  eV     1   --> B_2  D_4  S_4  
     e( 38 - 38) =      7.89389  eV     1   --> A_1  D_1  S_1  
     e( 39 - 39) =      7.91295  eV     1   --> B_1  D_3  S_3  
     e( 40 - 40) =      8.29812  eV     1   --> A_2  D_2  S_2  
     e( 41 - 41) =      8.48349  eV     1   --> A_1  D_1  S_1  
     e( 42 - 42) =      8.84164  eV     1   --> A_1  D_1  S_1  
     e( 43 - 43) =      8.91458  eV     1   --> B_1  D_3  S_3  
     e( 44 - 44) =      8.99864  eV     1   --> A_2  D_2  S_2  
     e( 45 - 45) =      9.09519  eV     1   --> A_1  D_1  S_1  
     e( 46 - 46) =      9.25363  eV     1   --> B_2  D_4  S_4  
     e( 47 - 47) =      9.52115  eV     1   --> B_2  D_4  S_4  
     e( 48 - 48) =      9.54851  eV     1   --> B_1  D_3  S_3  
     e( 49 - 49) =      9.78336  eV     1   --> B_2  D_4  S_4  
     e( 50 - 50) =      9.80689  eV     1   --> B_1  D_3  S_3  
     e( 51 - 51) =      9.87970  eV     1   --> A_2  D_2  S_2  
     e( 52 - 52) =      9.91494  eV     1   --> A_1  D_1  S_1  
     e( 53 - 53) =     10.09977  eV     1   --> B_2  D_4  S_4  
     e( 54 - 54) =     10.63975  eV     1   --> B_2  D_4  S_4  
     e( 55 - 55) =     12.04677  eV     1   --> A_1  D_1  S_1  
     e( 56 - 56) =     14.65858  eV     1   --> A_1  D_1  S_1  
     e( 57 - 57) =     15.01378  eV     1   --> A_1  D_1  S_1  
     e( 58 - 58) =     15.80876  eV     1   --> B_1  D_3  S_3  
     e( 59 - 59) =     16.11471  eV     1   --> A_1  D_1  S_1  
     e( 60 - 60) =     16.41312  eV     1   --> A_1  D_1  S_1  
     e( 61 - 61) =     16.55129  eV     1   --> B_2  D_4  S_4  
     e( 62 - 62) =     17.17302  eV     1   --> A_1  D_1  S_1  
     e( 63 - 63) =     17.31851  eV     1   --> B_2  D_4  S_4  
     e( 64 - 64) =     18.09198  eV     1   --> B_2  D_4  S_4  
     e( 65 - 65) =     18.12017  eV     1   --> A_1  D_1  S_1  
     e( 66 - 66) =     18.14644  eV     1   --> A_2  D_2  S_2  
     e( 67 - 67) =     18.34547  eV     1   --> B_2  D_4  S_4  
     e( 68 - 68) =     18.60755  eV     1   --> A_1  D_1  S_1  
     e( 69 - 69) =     19.01087  eV     1   --> B_1  D_3  S_3  
     e( 70 - 70) =     19.35777  eV     1   --> B_2  D_4  S_4  
     e( 71 - 71) =     19.55267  eV     1   --> A_2  D_2  S_2  
     e( 72 - 72) =     19.85415  eV     1   --> B_1  D_3  S_3  
     e( 73 - 73) =     20.29103  eV     1   --> A_2  D_2  S_2  
     e( 74 - 74) =     20.98660  eV     1   --> A_1  D_1  S_1  
     e( 75 - 75) =     21.06198  eV     1   --> B_1  D_3  S_3  
     e( 76 - 76) =     21.33051  eV     1   --> A_1  D_1  S_1  
     e( 77 - 77) =     21.42512  eV     1   --> B_2  D_4  S_4  
     e( 78 - 78) =     22.15885  eV     1   --> A_1  D_1  S_1  
     e( 79 - 79) =     23.08335  eV     1   --> B_2  D_4  S_4  
     e( 80 - 80) =     24.49595  eV     1   --> A_1  D_1  S_1  
     e( 81 - 81) =     24.75162  eV     1   --> B_2  D_4  S_4  
     e( 82 - 82) =     24.89589  eV     1   --> A_1  D_1  S_1  

 **************************************************************************

 **************************************************************************

                    xk=(   0.00000,   0.32500,   0.00000  )

     Band symmetry, C_2v (mm2)  point group:

     e(  1 -  1) =    -29.97160  eV     1   --> A_1  D_1  S_1  
     e(  2 -  2) =    -14.64956  eV     1   --> A_1  D_1  S_1  
     e(  3 -  3) =    -14.61625  eV     1   --> B_2  D_4  S_4  
     e(  4 -  4) =    -10.72403  eV     1   --> A_1  D_1  S_1  
     e(  5 -  5) =    -10.61854  eV     1   --> B_2  D_4  S_4  
     e(  6 -  6) =    -10.06146  eV     1   --> B_1  D_3  S_3  
     e(  7 -  7) =     -7.25204  eV     1   --> A_1  D_1  S_1  
     e(  8 -  8) =     -6.98596  eV     1   --> B_2  D_4  S_4  
     e(  9 -  9) =     -6.52353  eV     1   --> A_1  D_1  S_1  
     e( 10 - 10) =     -6.31577  eV     1   --> A_1  D_1  S_1  
     e( 11 - 11) =     -6.23795  eV     1   --> B_2  D_4  S_4  
     e( 12 - 12) =     -5.95895  eV     1   --> B_2  D_4  S_4  
     e( 13 - 13) =     -5.90016  eV     1   --> A_1  D_1  S_1  
     e( 14 - 14) =      0.03239  eV     1   --> B_2  D_4  S_4  
     e( 15 - 15) =      0.15899  eV     1   --> A_1  D_1  S_1  
     e( 16 - 16) =      0.31275  eV     1   --> A_1  D_1  S_1  
     e( 17 - 17) =      0.41455  eV     1   --> B_2  D_4  S_4  
     e( 18 - 18) =      0.58829  eV     1   --> B_1  D_3  S_3  
     e( 19 - 19) =      0.66401  eV     1   --> A_2  D_2  S_2  
     e( 20 - 20) =      4.40658  eV     1   --> A_1  D_1  S_1  
     e( 21 - 21) =      4.60466  eV     1   --> B_2  D_4  S_4  
     e( 22 - 22) =      4.76912  eV     1   --> A_1  D_1  S_1  
     e( 23 - 23) =      5.47998  eV     1   --> A_1  D_1  S_1  
     e( 24 - 24) =      5.53479  eV     1   --> A_2  D_2  S_2  
     e( 25 - 25) =      5.64641  eV     1   --> B_1  D_3  S_3  
     e( 26 - 26) =      5.84691  eV     1   --> A_1  D_1  S_1  
     e( 27 - 27) =      6.01681  eV     1   --> B_2  D_4  S_4  
     e( 28 - 28) =      6.52925  eV     1   --> A_1  D_1  S_1  
     e( 29 - 29) =      6.63721  eV     1   --> A_2  D_2  S_2  
     e( 30 - 30) =      6.70531  eV     1   --> B_1  D_3  S_3  
     e( 31 - 31) =      6.75211  eV     1   --> B_2  D_4  S_4  
     e( 32 - 32) =      6.97040  eV     1   --> A_2  D_2  S_2  
     e( 33 - 33) =      7.05016  eV     1   --> B_1  D_3  S_3  
     e( 34 - 34) =      7.21710  eV     1   --> B_2  D_4  S_4  
     e( 35 - 35) =      7.45105  eV     1   --> B_2  D_4  S_4  
     e( 36 - 36) =      7.50914  eV     1   --> A_1  D_1  S_1  
     e( 37 - 37) =      7.85368  eV     1   --> B_1  D_3  S_3  
     e( 38 - 38) =      7.87961  eV     1   --> A_1  D_1  S_1  
     e( 39 - 39) =      7.91340  eV     1   --> B_2  D_4  S_4  
     e( 40 - 40) =      8.30584  eV     1   --> A_2  D_2  S_2  
     e( 41 - 41) =      8.52353  eV     1   --> A_1  D_1  S_1  
     e( 42 - 42) =      8.79948  eV     1   --> A_1  D_1  S_1  
     e( 43 - 43) =      8.91788  eV     1   --> B_1  D_3  S_3  
     e( 44 - 44) =      9.02485  eV     1   --> A_2  D_2  S_2  
     e( 45 - 45) =      9.09148  eV     1   --> A_1  D_1  S_1  
     e( 46 - 46) =      9.35393  eV     1   --> B_2  D_4  S_4  
     e( 47 - 47) =      9.54296  eV     1   --> B_2  D_4  S_4  
     e( 48 - 48) =      9.57334  eV     1   --> B_1  D_3  S_3  
     e( 49 - 49) =      9.76735  eV     1   --> B_2  D_4  S_4  
     e( 50 - 50) =      9.84025  eV     1   --> A_2  D_2  S_2  
     e( 51 - 51) =      9.88668  eV     1   --> B_1  D_3  S_3  
     e( 52 - 52) =      9.91444  eV     1   --> A_1  D_1  S_1  
     e( 53 - 53) =     10.13990  eV     1   --> B_2  D_4  S_4  
     e( 54 - 54) =     10.63728  eV     1   --> B_2  D_4  S_4  
     e( 55 - 55) =     12.17465  eV     1   --> A_1  D_1  S_1  
     e( 56 - 56) =     14.74938  eV     1   --> A_1  D_1  S_1  
     e( 57 - 57) =     15.20960  eV     1   --> A_1  D_1  S_1  
     e( 58 - 58) =     15.79041  eV     1   --> B_1  D_3  S_3  
     e( 59 - 59) =     16.12961  eV     1   --> A_1  D_1  S_1  
     e( 60 - 60) =     16.56769  eV     1   --> A_1  D_1  S_1  
     e( 61 - 61) =     16.76643  eV     1   --> B_2  D_4  S_4  
[...]
     e( 56 - 56) =     13.25167  eV     1   --> A'             
     e( 57 - 57) =     14.49284  eV     1   --> A'             
     e( 58 - 58) =     16.10196  eV     1   --> A'             
     e( 59 - 59) =     16.44840  eV     1   --> A''            
     e( 60 - 60) =     17.10324  eV     1   --> A'             
     e( 61 - 61) =     17.17649  eV     1   --> A''            
     e( 62 - 62) =     17.45735  eV     1   --> A''            
     e( 63 - 63) =     17.84860  eV     1   --> A'             
     e( 64 - 64) =     18.10079  eV     1   --> A'             
     e( 65 - 65) =     18.16140  eV     1   --> A''            
     e( 66 - 66) =     18.57858  eV     1   --> A'             
     e( 67 - 67) =     18.98773  eV     1   --> A''            
     e( 68 - 68) =     19.25322  eV     1   --> A'             
     e( 69 - 69) =     19.33122  eV     1   --> A''            
     e( 70 - 70) =     20.24804  eV     1   --> A'             
     e( 71 - 71) =     20.82896  eV     1   --> A''            
     e( 72 - 72) =     21.01846  eV     1   --> A'             
     e( 73 - 73) =     21.50659  eV     1   --> A'             
     e( 74 - 74) =     21.56702  eV     1   --> A''            
     e( 75 - 75) =     21.86745  eV     1   --> A'             
     e( 76 - 76) =     22.23184  eV     1   --> A'             
     e( 77 - 77) =     22.86613  eV     1   --> A''            
     e( 78 - 78) =     22.89316  eV     1   --> A'             
     e( 79 - 79) =     23.14450  eV     1   --> A'             
     e( 80 - 80) =     23.65384  eV     1   --> A''            
     e( 81 - 81) =     24.38086  eV     1   --> A'             
     e( 82 - 82) =     24.45666  eV     1   --> A''            

 **************************************************************************

 **************************************************************************

                    xk=(   0.45000,   0.45000,   0.00000  )

     Band symmetry, C_s (m)     point group:

     e(  1 -  1) =    -29.94716  eV     1   --> A'             
     e(  2 -  2) =    -14.46161  eV     1   --> A'             
     e(  3 -  3) =    -14.44068  eV     1   --> A''            
     e(  4 -  4) =    -10.82074  eV     1   --> A'             
     e(  5 -  5) =    -10.80638  eV     1   --> A'             
     e(  6 -  6) =    -10.20498  eV     1   --> A''            
     e(  7 -  7) =     -6.83463  eV     1   --> A''            
     e(  8 -  8) =     -6.80420  eV     1   --> A''            
     e(  9 -  9) =     -6.22726  eV     1   --> A'             
     e( 10 - 10) =     -6.10277  eV     1   --> A'             
     e( 11 - 11) =     -6.05594  eV     1   --> A'             
     e( 12 - 12) =     -5.93913  eV     1   --> A'             
     e( 13 - 13) =     -5.79097  eV     1   --> A''            
     e( 14 - 14) =     -0.70966  eV     1   --> A'             
     e( 15 - 15) =     -0.69872  eV     1   --> A''            
     e( 16 - 16) =     -0.63659  eV     1   --> A''            
     e( 17 - 17) =     -0.30525  eV     1   --> A'             
     e( 18 - 18) =     -0.21680  eV     1   --> A'             
     e( 19 - 19) =      0.17595  eV     1   --> A''            
     e( 20 - 20) =      2.96630  eV     1   --> A'             
     e( 21 - 21) =      3.61262  eV     1   --> A''            
     e( 22 - 22) =      4.42307  eV     1   --> A'             
     e( 23 - 23) =      4.76967  eV     1   --> A'             
     e( 24 - 24) =      4.85836  eV     1   --> A'             
     e( 25 - 25) =      4.90337  eV     1   --> A''            
     e( 26 - 26) =      5.44753  eV     1   --> A'             
     e( 27 - 27) =      5.63592  eV     1   --> A''            
     e( 28 - 28) =      6.27689  eV     1   --> A''            
     e( 29 - 29) =      6.45426  eV     1   --> A'             
     e( 30 - 30) =      6.51620  eV     1   --> A'             
     e( 31 - 31) =      6.77120  eV     1   --> A''            
     e( 32 - 32) =      6.86853  eV     1   --> A'             
     e( 33 - 33) =      6.89569  eV     1   --> A''            
     e( 34 - 34) =      6.93251  eV     1   --> A''            
     e( 35 - 35) =      7.38920  eV     1   --> A''            
     e( 36 - 36) =      7.98916  eV     1   --> A'             
     e( 37 - 37) =      8.58221  eV     1   --> A'             
     e( 38 - 38) =      8.90983  eV     1   --> A'             
     e( 39 - 39) =      9.13529  eV     1   --> A'             
     e( 40 - 40) =      9.16686  eV     1   --> A'             
     e( 41 - 41) =      9.28227  eV     1   --> A'             
     e( 42 - 42) =      9.33807  eV     1   --> A''            
     e( 43 - 43) =      9.47855  eV     1   --> A''            
     e( 44 - 44) =      9.53899  eV     1   --> A''            
     e( 45 - 45) =      9.59236  eV     1   --> A''            
     e( 46 - 46) =      9.63765  eV     1   --> A'             
     e( 47 - 47) =      9.75709  eV     1   --> A''            
     e( 48 - 48) =      9.96020  eV     1   --> A'             
     e( 49 - 49) =     10.07554  eV     1   --> A'             
     e( 50 - 50) =     10.14924  eV     1   --> A''            
     e( 51 - 51) =     10.46265  eV     1   --> A''            
     e( 52 - 52) =     10.56552  eV     1   --> A''            
     e( 53 - 53) =     12.15993  eV     1   --> A'             
     e( 54 - 54) =     12.55283  eV     1   --> A'             
     e( 55 - 55) =     12.63634  eV     1   --> A''            
     e( 56 - 56) =     13.14479  eV     1   --> A'             
     e( 57 - 57) =     14.46900  eV     1   --> A'             
     e( 58 - 58) =     16.16677  eV     1   --> A'             
     e( 59 - 59) =     16.36845  eV     1   --> A''            
     e( 60 - 60) =     17.05955  eV     1   --> A'             
     e( 61 - 61) =     17.12931  eV     1   --> A''            
     e( 62 - 62) =     17.33573  eV     1   --> A''            
     e( 63 - 63) =     17.80160  eV     1   --> A'             
     e( 64 - 64) =     18.19953  eV     1   --> A''            
     e( 65 - 65) =     18.27274  eV     1   --> A'             
     e( 66 - 66) =     18.61160  eV     1   --> A'             
     e( 67 - 67) =     19.02793  eV     1   --> A''            
     e( 68 - 68) =     19.17582  eV     1   --> A'             
     e( 69 - 69) =     19.26898  eV     1   --> A''            
     e( 70 - 70) =     20.63732  eV     1   --> A'             
     e( 71 - 71) =     21.25244  eV     1   --> A''            
     e( 72 - 72) =     21.36651  eV     1   --> A'             
     e( 73 - 73) =     21.48991  eV     1   --> A''            
     e( 74 - 74) =     21.57271  eV     1   --> A'             
     e( 75 - 75) =     21.86619  eV     1   --> A'             
     e( 76 - 76) =     22.15579  eV     1   --> A'             
     e( 77 - 77) =     22.82390  eV     1   --> A'             
     e( 78 - 78) =     23.06490  eV     1   --> A''            
     e( 79 - 79) =     23.21020  eV     1   --> A'             
     e( 80 - 80) =     23.81326  eV     1   --> A''            
     e( 81 - 81) =     24.25901  eV     1   --> A'             
     e( 82 - 82) =     24.29199  eV     1   --> A''            

 **************************************************************************

 **************************************************************************

                    xk=(   0.47500,   0.47500,   0.00000  )

     Band symmetry, C_s (m)     point group:

     e(  1 -  1) =    -29.94643  eV     1   --> A'             
     e(  2 -  2) =    -14.45639  eV     1   --> A'             
     e(  3 -  3) =    -14.43569  eV     1   --> A''            
     e(  4 -  4) =    -10.83068  eV     1   --> A'             
     e(  5 -  5) =    -10.81670  eV     1   --> A'             
     e(  6 -  6) =    -10.19131  eV     1   --> A''            
     e(  7 -  7) =     -6.83936  eV     1   --> A''            
     e(  8 -  8) =     -6.81063  eV     1   --> A''            
     e(  9 -  9) =     -6.16039  eV     1   --> A'             
     e( 10 - 10) =     -6.08268  eV     1   --> A'             
     e( 11 - 11) =     -6.03670  eV     1   --> A'             
     e( 12 - 12) =     -5.99000  eV     1   --> A'             
     e( 13 - 13) =     -5.77861  eV     1   --> A''            
     e( 14 - 14) =     -0.74554  eV     1   --> A'             
     e( 15 - 15) =     -0.71651  eV     1   --> A''            
     e( 16 - 16) =     -0.70040  eV     1   --> A''            
     e( 17 - 17) =     -0.32029  eV     1   --> A'             
     e( 18 - 18) =     -0.24175  eV     1   --> A'             
     e( 19 - 19) =      0.17861  eV     1   --> A''            
     e( 20 - 20) =      2.91715  eV     1   --> A'             
     e( 21 - 21) =      3.56825  eV     1   --> A''            
     e( 22 - 22) =      4.39254  eV     1   --> A'             
     e( 23 - 23) =      4.73275  eV     1   --> A'             
     e( 24 - 24) =      4.84847  eV     1   --> A'             
     e( 25 - 25) =      4.89413  eV     1   --> A''            
     e( 26 - 26) =      5.44860  eV     1   --> A'             
     e( 27 - 27) =      5.63491  eV     1   --> A''            
     e( 28 - 28) =      6.26999  eV     1   --> A''            
     e( 29 - 29) =      6.46688  eV     1   --> A'             
     e( 30 - 30) =      6.52301  eV     1   --> A'             
     e( 31 - 31) =      6.75748  eV     1   --> A''            
     e( 32 - 32) =      6.84417  eV     1   --> A'             
     e( 33 - 33) =      6.89048  eV     1   --> A''            
     e( 34 - 34) =      6.92290  eV     1   --> A''            
     e( 35 - 35) =      7.39970  eV     1   --> A''            
     e( 36 - 36) =      7.99284  eV     1   --> A'             
     e( 37 - 37) =      8.61209  eV     1   --> A'             
     e( 38 - 38) =      8.98865  eV     1   --> A'             
     e( 39 - 39) =      9.13403  eV     1   --> A'             
     e( 40 - 40) =      9.17506  eV     1   --> A'             
     e( 41 - 41) =      9.26165  eV     1   --> A'             
     e( 42 - 42) =      9.44235  eV     1   --> A''            
     e( 43 - 43) =      9.50083  eV     1   --> A''            
     e( 44 - 44) =      9.58985  eV     1   --> A''            
     e( 45 - 45) =      9.61044  eV     1   --> A''            
     e( 46 - 46) =      9.67715  eV     1   --> A''            
     e( 47 - 47) =      9.68084  eV     1   --> A'             
     e( 48 - 48) =      9.99976  eV     1   --> A'             
     e( 49 - 49) =     10.09382  eV     1   --> A'             
     e( 50 - 50) =     10.15245  eV     1   --> A''            
     e( 51 - 51) =     10.52478  eV     1   --> A''            
     e( 52 - 52) =     10.58602  eV     1   --> A''            
     e( 53 - 53) =     12.15540  eV     1   --> A'             
     e( 54 - 54) =     12.61721  eV     1   --> A'             
     e( 55 - 55) =     12.69884  eV     1   --> A''            
     e( 56 - 56) =     13.07748  eV     1   --> A'             
     e( 57 - 57) =     14.45581  eV     1   --> A'             
     e( 58 - 58) =     16.21074  eV     1   --> A'             
     e( 59 - 59) =     16.31903  eV     1   --> A''            
     e( 60 - 60) =     17.02763  eV     1   --> A'             
     e( 61 - 61) =     17.09692  eV     1   --> A''            
     e( 62 - 62) =     17.25464  eV     1   --> A''            
     e( 63 - 63) =     17.76208  eV     1   --> A'             
     e( 64 - 64) =     18.22939  eV     1   --> A''            
     e( 65 - 65) =     18.38712  eV     1   --> A'             
     e( 66 - 66) =     18.65225  eV     1   --> A'             
     e( 67 - 67) =     19.07549  eV     1   --> A''            
     e( 68 - 68) =     19.09905  eV     1   --> A'             
     e( 69 - 69) =     19.20230  eV     1   --> A''            
     e( 70 - 70) =     21.01185  eV     1   --> A'             
     e( 71 - 71) =     21.43051  eV     1   --> A''            
     e( 72 - 72) =     21.58950  eV     1   --> A''            
     e( 73 - 73) =     21.59500  eV     1   --> A'             
     e( 74 - 74) =     21.63589  eV     1   --> A'             
     e( 75 - 75) =     21.84668  eV     1   --> A'             
     e( 76 - 76) =     22.03449  eV     1   --> A'             
     e( 77 - 77) =     22.66578  eV     1   --> A'             
     e( 78 - 78) =     23.15489  eV     1   --> A''            
     e( 79 - 79) =     23.35602  eV     1   --> A'             
     e( 80 - 80) =     23.91714  eV     1   --> A''            
     e( 81 - 81) =     24.22393  eV     1   --> A''            
     e( 82 - 82) =     24.27347  eV     1   --> A'             

 **************************************************************************

 **************************************************************************

                    xk=(   0.50000,   0.50000,   0.00000  )

     point group D_2h (mmm) 
     there are  8 classes
     the character table:

       E     C2    C2'   C2''  i     s_v   s_v'  s_v''
A_g    1.00  1.00  1.00  1.00  1.00  1.00  1.00  1.00
B_1g   1.00  1.00 -1.00 -1.00  1.00  1.00 -1.00 -1.00
B_2g   1.00 -1.00  1.00 -1.00  1.00 -1.00  1.00 -1.00
B_3g   1.00 -1.00 -1.00  1.00  1.00 -1.00 -1.00  1.00
A_u    1.00  1.00  1.00  1.00 -1.00 -1.00 -1.00 -1.00
B_1u   1.00  1.00 -1.00 -1.00 -1.00 -1.00  1.00  1.00
B_2u   1.00 -1.00  1.00 -1.00 -1.00  1.00 -1.00  1.00
B_3u   1.00 -1.00 -1.00  1.00 -1.00  1.00  1.00 -1.00

     the symmetry operations in each class and the name of the first element:

     E        1
                                                                 
     C2       2
                                                                 
     C2'      4
                                                                 
     C2''     3
                                                                 
     i        5
                                                                 
     s_v      6
                                                                 
     s_v'     8
                                                                 
     s_v''    7
                                                                 

     Band symmetry, D_2h (mmm)  point group:

     e(  1 -  1) =    -29.94619  eV     1   --> B_1g           
     e(  2 -  2) =    -14.45464  eV     1   --> B_1g           
     e(  3 -  3) =    -14.43403  eV     1   --> A_u            
     e(  4 -  4) =    -10.83407  eV     1   --> B_2u           
     e(  5 -  5) =    -10.82009  eV     1   --> B_3u           
     e(  6 -  6) =    -10.18670  eV     1   --> A_u            
     e(  7 -  7) =     -6.84120  eV     1   --> B_3g           
     e(  8 -  8) =     -6.81252  eV     1   --> B_2g           
     e(  9 -  9) =     -6.12489  eV     1   --> B_3u           
     e( 10 - 10) =     -6.07395  eV     1   --> B_2u           
     e( 11 - 11) =     -6.03309  eV     1   --> A_g            
     e( 12 - 12) =     -6.01912  eV     1   --> B_3u           
     e( 13 - 13) =     -5.77426  eV     1   --> B_1u           
     e( 14 - 14) =     -0.75821  eV     1   --> B_2u           
     e( 15 - 15) =     -0.72363  eV     1   --> B_3g           
     e( 16 - 16) =     -0.72098  eV     1   --> B_2g           
     e( 17 - 17) =     -0.32498  eV     1   --> B_3u           
     e( 18 - 18) =     -0.25012  eV     1   --> B_1g           
     e( 19 - 19) =      0.17951  eV     1   --> A_u            
     e( 20 - 20) =      2.90059  eV     1   --> A_g            
     e( 21 - 21) =      3.55329  eV     1   --> B_1u           
     e( 22 - 22) =      4.38230  eV     1   --> A_g            
     e( 23 - 23) =      4.72047  eV     1   --> B_1g           
     e( 24 - 24) =      4.84514  eV     1   --> A_g            
     e( 25 - 25) =      4.89101  eV     1   --> B_1u           
     e( 26 - 26) =      5.44901  eV     1   --> A_g            
     e( 27 - 27) =      5.63470  eV     1   --> A_u            
     e( 28 - 28) =      6.26756  eV     1   --> B_2g           
     e( 29 - 29) =      6.46910  eV     1   --> B_2u           
     e( 30 - 30) =      6.52825  eV     1   --> B_3u           
     e( 31 - 31) =      6.75279  eV     1   --> B_3g           
     e( 32 - 32) =      6.83498  eV     1   --> B_1g           
     e( 33 - 33) =      6.88920  eV     1   --> B_1u           
     e( 34 - 34) =      6.91935  eV     1   --> B_2g           
     e( 35 - 35) =      7.40322  eV     1   --> B_3g           
     e( 36 - 36) =      7.99401  eV     1   --> A_g            
     e( 37 - 37) =      8.62248  eV     1   --> A_g            
     e( 38 - 38) =      9.02893  eV     1   --> B_1g           
     e( 39 - 39) =      9.11872  eV     1   --> B_2u           
     e( 40 - 40) =      9.17781  eV     1   --> B_1g           
     e( 41 - 41) =      9.25480  eV     1   --> B_3u           
     e( 42 - 42) =      9.50110  eV     1   --> B_3g           
     e( 43 - 43) =      9.51153  eV     1   --> B_2g           
     e( 44 - 44) =      9.60310  eV     1   --> A_u            
     e( 45 - 45) =      9.62121  eV     1   --> A_u            
     e( 46 - 46) =      9.62237  eV     1   --> B_1u           
     e( 47 - 47) =      9.69526  eV     1   --> B_2u           
     e( 48 - 48) =     10.01531  eV     1   --> B_3u           
     e( 49 - 49) =     10.09951  eV     1   --> B_1g           
     e( 50 - 50) =     10.15359  eV     1   --> B_2g           
     e( 51 - 51) =     10.54069  eV     1   --> B_3g           
     e( 52 - 52) =     10.59898  eV     1   --> B_2g           
     e( 53 - 53) =     12.15352  eV     1   --> A_g            
     e( 54 - 54) =     12.63930  eV     1   --> A_g            
     e( 55 - 55) =     12.72023  eV     1   --> B_1u           
     e( 56 - 56) =     13.05432  eV     1   --> B_2u           
     e( 57 - 57) =     14.45160  eV     1   --> A_g            
     e( 58 - 58) =     16.22656  eV     1   --> B_1g           
     e( 59 - 59) =     16.30231  eV     1   --> B_3g           
     e( 60 - 60) =     17.01580  eV     1   --> B_3u           
     e( 61 - 61) =     17.08540  eV     1   --> B_2g           
     e( 62 - 62) =     17.22620  eV     1   --> B_1u           
     e( 63 - 63) =     17.74738  eV     1   --> A_g            
     e( 64 - 64) =     18.24072  eV     1   --> B_3g           
     e( 65 - 65) =     18.42487  eV     1   --> B_1g           
     e( 66 - 66) =     18.67602  eV     1   --> B_1g           
     e( 67 - 67) =     19.06341  eV     1   --> B_2u           
     e( 68 - 68) =     19.11792  eV     1   --> A_u            
     e( 69 - 69) =     19.15230  eV     1   --> B_2g           
     e( 70 - 70) =     21.22782  eV     1   --> A_g            
     e( 71 - 71) =     21.41303  eV     1   --> B_1u           
     e( 72 - 72) =     21.63632  eV     1   --> A_g            
     e( 73 - 73) =     21.66982  eV     1   --> B_3u           
     e( 74 - 74) =     21.72251  eV     1   --> A_u            
     e( 75 - 75) =     21.76581  eV     1   --> B_1g           
     e( 76 - 76) =     22.02103  eV     1   --> A_g            
     e( 77 - 77) =     22.59401  eV     1   --> B_2u           
     e( 78 - 78) =     23.15930  eV     1   --> B_3g           
     e( 79 - 79) =     23.42737  eV     1   --> B_1g           
     e( 80 - 80) =     23.95200  eV     1   --> B_1u           
     e( 81 - 81) =     24.23609  eV     1   --> A_u            
     e( 82 - 82) =     24.35593  eV     1   --> B_2u           

 **************************************************************************
 
     BANDS        :   1m44.11s CPU   2m11.79s WALL

 
   This run was terminated on:  18:39:35  31Dec2023            

=------------------------------------------------------------------------------=
   JOB DONE.
=------------------------------------------------------------------------------=
