
     Program PWSCF v.7.2 starts on 31Dec2023 at 17:47:38 

     This program is part of the open-source Quantum ESPRESSO suite
     for quantum simulation of materials; please cite
         "P. Giannozzi et al., J. Phys.:Condens. Matter 21 395502 (2009);
         "P. Giannozzi et al., J. Phys.:Condens. Matter 29 465901 (2017);
         "P. Giannozzi et al., J. Chem. Phys. 152 154105 (2020);
          URL http://www.quantum-espresso.org", 
     in publications or presentations arising from this work. More details at
     http://www.quantum-espresso.org/quote

     Parallel version (MPI), running on     4 processors

     MPI processes distributed on     1 nodes
     6360 MiB available memory on the printing compute node when the environment starts
 
     Waiting for input...
     Reading input from standard input

     Current dimensions of program PWSCF are:
     Max number of different atomic species (ntypx) = 10
     Max number of k-points (npk) =  40000
     Max angular momentum in pseudopotentials (lmaxx) =  4
     file Y.pz-spn-rrkjus_psl.1.0.0.UPF: wavefunction(s)  4S renormalized
     file Ba.pz-spn-rrkjus_psl.1.0.0.UPF: wavefunction(s)  5S 6S renormalized
     file Cu.pz-dn-rrkjus_psl.1.0.0.UPF: wavefunction(s)  3D renormalized

     Atomic positions and unit cell read from directory:
     ./YBCO7/YBCO7.save/
 
 
     R & G space division:  proc/nbgrp/npool/nimage =       4
     Subspace diagonalization in iterative solution of the eigenvalue problem:
     a serial algorithm will be used

 
     Parallelization info
     --------------------
     sticks:   dense  smooth     PW     G-vecs:    dense   smooth      PW
     Min         544     242     69                57618    17092    2629
     Max         545     244     70                57625    17096    2640
     Sum        2177     973    277               230487    68375   10533
 
     Using Slab Decomposition
 


     bravais-lattice index     =            6
     lattice parameter (alat)  =       7.1036  a.u.
     unit-cell volume          =    1088.3314 (a.u.)^3
     number of atoms/cell      =           13
     number of atomic types    =            4
     number of electrons       =       106.00
     number of Kohn-Sham states=           64
     kinetic-energy cutoff     =      60.0000  Ry
     charge density cutoff     =     540.0000  Ry
     Exchange-correlation= LDA
                           (   1   1   0   0   0   0   0)

     celldm(1)=   7.103626  celldm(2)=   1.012958  celldm(3)=   3.036133
     celldm(4)=   0.000000  celldm(5)=   0.000000  celldm(6)=   0.000000

     crystal axes: (cart. coord. in units of alat)
               a(1) = (   1.000000   0.000000   0.000000 )  
               a(2) = (   0.000000   1.000000   0.000000 )  
               a(3) = (   0.000000   0.000000   3.036133 )  

     reciprocal axes: (cart. coord. in units 2 pi/alat)
               b(1) = (  1.000000  0.000000  0.000000 )  
               b(2) = (  0.000000  1.000000  0.000000 )  
               b(3) = (  0.000000  0.000000  0.329366 )  


     PseudoPot. # 1 for Y  read from file:
     ~/q-e/pslibrary/pz/PSEUDOPOTENTIALS/Y.pz-spn-rrkjus_psl.1.0.0.UPF
     MD5 check sum: Not computed, couldn't open file
     Pseudo is Ultrasoft + core correction, Zval = 11.0
     Generated using 'atomic' code by A. Dal Corso  v.7.2
     Using radial grid of 1223 points,  6 beta functions with: 
                l(1) =   0
                l(2) =   0
                l(3) =   1
                l(4) =   1
                l(5) =   2
                l(6) =   2
     Q(r) pseudized with 0 coefficients 


     PseudoPot. # 2 for Ba read from file:
     ~/q-e/pslibrary/pz/PSEUDOPOTENTIALS/Ba.pz-spn-rrkjus_psl.1.0.0.UPF
     MD5 check sum: Not computed, couldn't open file
     Pseudo is Ultrasoft + core correction, Zval = 10.0
     Generated using 'atomic' code by A. Dal Corso  v.7.2
     Using radial grid of 1251 points,  7 beta functions with: 
                l(1) =   0
                l(2) =   0
                l(3) =   0
                l(4) =   1
                l(5) =   1
                l(6) =   2
                l(7) =   2
     Q(r) pseudized with 0 coefficients 


     PseudoPot. # 3 for Cu read from file:
     ~/q-e/pslibrary/pz/PSEUDOPOTENTIALS/Cu.pz-dn-rrkjus_psl.1.0.0.UPF
     MD5 check sum: Not computed, couldn't open file
     Pseudo is Ultrasoft + core correction, Zval = 11.0
     Generated using 'atomic' code by A. Dal Corso  v.7.2
     Using radial grid of 1199 points,  6 beta functions with: 
                l(1) =   0
                l(2) =   0
                l(3) =   1
                l(4) =   1
                l(5) =   2
                l(6) =   2
     Q(r) pseudized with 0 coefficients 


     PseudoPot. # 4 for O  read from file:
     ~/q-e/pslibrary/pz/PSEUDOPOTENTIALS/O.pz-n-rrkjus_psl.1.0.0.UPF
     MD5 check sum: Not computed, couldn't open file
     Pseudo is Ultrasoft + core correction, Zval =  6.0
     Generated using 'atomic' code by A. Dal Corso  v.7.2
     Using radial grid of 1095 points,  4 beta functions with: 
                l(1) =   0
                l(2) =   0
                l(3) =   1
                l(4) =   1
     Q(r) pseudized with 0 coefficients 


     atomic species   valence    mass     pseudopotential
     Y                11.00    88.90584     Y ( 1.00)
     Ba               10.00   137.32700     Ba( 1.00)
     Cu               11.00    63.54600     Cu( 1.00)
     O                 6.00    15.99900     O ( 1.00)

      8 Sym. Ops., with inversion, found


                                    s                        frac. trans.

      isym =  1     identity                                     

 cryst.   s( 1) = (     1          0          0      )
                  (     0          1          0      )
                  (     0          0          1      )

 cart.    s( 1) = (  1.0000000  0.0000000  0.0000000 )
                  (  0.0000000  1.0000000  0.0000000 )
                  (  0.0000000  0.0000000  1.0000000 )


      isym =  2     180 deg rotation - cart. axis [0,0,1]        

 cryst.   s( 2) = (    -1          0          0      )
                  (     0         -1          0      )
                  (     0          0          1      )

 cart.    s( 2) = ( -1.0000000  0.0000000  0.0000000 )
                  (  0.0000000 -1.0000000  0.0000000 )
                  (  0.0000000  0.0000000  1.0000000 )


      isym =  3     180 deg rotation - cart. axis [0,1,0]        

 cryst.   s( 3) = (    -1          0          0      )
                  (     0          1          0      )
                  (     0          0         -1      )

 cart.    s( 3) = ( -1.0000000  0.0000000  0.0000000 )
                  (  0.0000000  1.0000000  0.0000000 )
                  (  0.0000000  0.0000000 -1.0000000 )


      isym =  4     180 deg rotation - cart. axis [1,0,0]        

 cryst.   s( 4) = (     1          0          0      )
                  (     0         -1          0      )
                  (     0          0         -1      )

 cart.    s( 4) = (  1.0000000  0.0000000  0.0000000 )
                  (  0.0000000 -1.0000000  0.0000000 )
                  (  0.0000000  0.0000000 -1.0000000 )


      isym =  5     inversion                                    

 cryst.   s( 5) = (    -1          0          0      )
                  (     0         -1          0      )
                  (     0          0         -1      )

 cart.    s( 5) = ( -1.0000000  0.0000000  0.0000000 )
                  (  0.0000000 -1.0000000  0.0000000 )
                  (  0.0000000  0.0000000 -1.0000000 )


      isym =  6     inv. 180 deg rotation - cart. axis [0,0,1]   

 cryst.   s( 6) = (     1          0          0      )
                  (     0          1          0      )
                  (     0          0         -1      )

 cart.    s( 6) = (  1.0000000  0.0000000  0.0000000 )
                  (  0.0000000  1.0000000  0.0000000 )
                  (  0.0000000  0.0000000 -1.0000000 )


      isym =  7     inv. 180 deg rotation - cart. axis [0,1,0]   

 cryst.   s( 7) = (     1          0          0      )
                  (     0         -1          0      )
                  (     0          0          1      )

 cart.    s( 7) = (  1.0000000  0.0000000  0.0000000 )
                  (  0.0000000 -1.0000000  0.0000000 )
                  (  0.0000000  0.0000000  1.0000000 )


      isym =  8     inv. 180 deg rotation - cart. axis [1,0,0]   

 cryst.   s( 8) = (    -1          0          0      )
                  (     0          1          0      )
                  (     0          0          1      )

 cart.    s( 8) = ( -1.0000000  0.0000000  0.0000000 )
                  (  0.0000000  1.0000000  0.0000000 )
                  (  0.0000000  0.0000000  1.0000000 )


     point group D_2h (mmm) 
     there are  8 classes
     the character table:

       E     C2    C2'   C2''  i     s_v   s_v'  s_v''
A_g    1.00  1.00  1.00  1.00  1.00  1.00  1.00  1.00
B_1g   1.00  1.00 -1.00 -1.00  1.00  1.00 -1.00 -1.00
B_2g   1.00 -1.00  1.00 -1.00  1.00 -1.00  1.00 -1.00
B_3g   1.00 -1.00 -1.00  1.00  1.00 -1.00 -1.00  1.00
A_u    1.00  1.00  1.00  1.00 -1.00 -1.00 -1.00 -1.00
B_1u   1.00  1.00 -1.00 -1.00 -1.00 -1.00  1.00  1.00
B_2u   1.00 -1.00  1.00 -1.00 -1.00  1.00 -1.00  1.00
B_3u   1.00 -1.00 -1.00  1.00 -1.00  1.00  1.00 -1.00

     the symmetry operations in each class and the name of the first element:

     E        1
          identity                                               
     C2       2
          180 deg rotation - cart. axis [0,0,1]                  
     C2'      4
          180 deg rotation - cart. axis [1,0,0]                  
     C2''     3
          180 deg rotation - cart. axis [0,1,0]                  
     i        5
          inversion                                              
     s_v      6
          inv. 180 deg rotation - cart. axis [0,0,1]             
     s_v'     8
          inv. 180 deg rotation - cart. axis [1,0,0]             
     s_v''    7
          inv. 180 deg rotation - cart. axis [0,1,0]             

   Cartesian axes

     site n.     atom                  positions (alat units)
         1        Y      tau(   1) = (   0.5000000   0.5000000   1.5180667  )
         2        Ba     tau(   2) = (   0.5000000   0.5000000   0.5513414  )
         3        Ba     tau(   3) = (   0.5000000   0.5000000   2.4847919  )
         4        Cu     tau(   4) = (   0.0000000   0.0000000   0.0000000  )
         5        Cu     tau(   5) = (   0.0000000   0.0000000   1.0679987  )
         6        Cu     tau(   6) = (   0.0000000   0.0000000   1.9681346  )
         7        O      tau(   7) = (   0.5000000   0.0000000   1.1440566  )
         8        O      tau(   8) = (   0.5000000   0.0000000   1.8920768  )
         9        O      tau(   9) = (   0.0000000   0.5000000   1.1430559  )
        10        O      tau(  10) = (   0.0000000   0.5000000   1.8930775  )
        11        O      tau(  11) = (   0.0000000   0.0000000   0.4880253  )
        12        O      tau(  12) = (   0.0000000   0.0000000   2.5481081  )
        13        O      tau(  13) = (   0.0000000   0.5000000   0.0000000  )

   Crystallographic axes

     site n.     atom                  positions (cryst. coord.)
         1        Y      tau(   1) = (  0.5000000  0.5000000  0.5000000  )
         2        Ba     tau(   2) = (  0.5000000  0.5000000  0.1815933  )
         3        Ba     tau(   3) = (  0.5000000  0.5000000  0.8184067  )
         4        Cu     tau(   4) = (  0.0000000  0.0000000  0.0000000  )
         5        Cu     tau(   5) = (  0.0000000  0.0000000  0.3517628  )
         6        Cu     tau(   6) = (  0.0000000  0.0000000  0.6482372  )
         7        O      tau(   7) = (  0.5000000  0.0000000  0.3768137  )
         8        O      tau(   8) = (  0.5000000  0.0000000  0.6231863  )
         9        O      tau(   9) = (  0.0000000  0.5000000  0.3764841  )
        10        O      tau(  10) = (  0.0000000  0.5000000  0.6235159  )
        11        O      tau(  11) = (  0.0000000  0.0000000  0.1607391  )
        12        O      tau(  12) = (  0.0000000  0.0000000  0.8392609  )
        13        O      tau(  13) = (  0.0000000  0.5000000  0.0000000  )

     number of k points=    64 (tetrahedron method)
                       cart. coord. in units 2pi/alat
        k(    1) = (   0.0625000   0.0625000   0.0205854), wk =   0.0312500
        k(    2) = (   0.0625000   0.0625000   0.0617562), wk =   0.0312500
        k(    3) = (   0.0625000   0.0625000   0.1029270), wk =   0.0312500
        k(    4) = (   0.0625000   0.0625000   0.1440978), wk =   0.0312500
        k(    5) = (   0.0625000   0.1875000   0.0205854), wk =   0.0312500
        k(    6) = (   0.0625000   0.1875000   0.0617562), wk =   0.0312500
        k(    7) = (   0.0625000   0.1875000   0.1029270), wk =   0.0312500
        k(    8) = (   0.0625000   0.1875000   0.1440978), wk =   0.0312500
        k(    9) = (   0.0625000   0.3125000   0.0205854), wk =   0.0312500
        k(   10) = (   0.0625000   0.3125000   0.0617562), wk =   0.0312500
        k(   11) = (   0.0625000   0.3125000   0.1029270), wk =   0.0312500
        k(   12) = (   0.0625000   0.3125000   0.1440978), wk =   0.0312500
        k(   13) = (   0.0625000   0.4375000   0.0205854), wk =   0.0312500
        k(   14) = (   0.0625000   0.4375000   0.0617562), wk =   0.0312500
        k(   15) = (   0.0625000   0.4375000   0.1029270), wk =   0.0312500
        k(   16) = (   0.0625000   0.4375000   0.1440978), wk =   0.0312500
        k(   17) = (   0.1875000   0.1875000   0.0205854), wk =   0.0312500
        k(   18) = (   0.1875000   0.1875000   0.0617562), wk =   0.0312500
        k(   19) = (   0.1875000   0.1875000   0.1029270), wk =   0.0312500
        k(   20) = (   0.1875000   0.1875000   0.1440978), wk =   0.0312500
        k(   21) = (   0.1875000   0.3125000   0.0205854), wk =   0.0312500
        k(   22) = (   0.1875000   0.3125000   0.0617562), wk =   0.0312500
        k(   23) = (   0.1875000   0.3125000   0.1029270), wk =   0.0312500
        k(   24) = (   0.1875000   0.3125000   0.1440978), wk =   0.0312500
        k(   25) = (   0.1875000   0.4375000   0.0205854), wk =   0.0312500
        k(   26) = (   0.1875000   0.4375000   0.0617562), wk =   0.0312500
        k(   27) = (   0.1875000   0.4375000   0.1029270), wk =   0.0312500
        k(   28) = (   0.1875000   0.4375000   0.1440978), wk =   0.0312500
        k(   29) = (   0.3125000   0.3125000   0.0205854), wk =   0.0312500
        k(   30) = (   0.3125000   0.3125000   0.0617562), wk =   0.0312500
        k(   31) = (   0.3125000   0.3125000   0.1029270), wk =   0.0312500
        k(   32) = (   0.3125000   0.3125000   0.1440978), wk =   0.0312500
        k(   33) = (   0.3125000   0.4375000   0.0205854), wk =   0.0312500
        k(   34) = (   0.3125000   0.4375000   0.0617562), wk =   0.0312500
        k(   35) = (   0.3125000   0.4375000   0.1029270), wk =   0.0312500
        k(   36) = (   0.3125000   0.4375000   0.1440978), wk =   0.0312500
        k(   37) = (   0.4375000   0.4375000   0.0205854), wk =   0.0312500
        k(   38) = (   0.4375000   0.4375000   0.0617562), wk =   0.0312500
        k(   39) = (   0.4375000   0.4375000   0.1029270), wk =   0.0312500
        k(   40) = (   0.4375000   0.4375000   0.1440978), wk =   0.0312500
        k(   41) = (   0.1875000   0.0625000  -0.0205854), wk =   0.0312500
        k(   42) = (   0.1875000   0.0625000  -0.0617562), wk =   0.0312500
        k(   43) = (   0.1875000   0.0625000  -0.1029270), wk =   0.0312500
        k(   44) = (   0.1875000   0.0625000  -0.1440978), wk =   0.0312500
        k(   45) = (   0.3125000   0.0625000  -0.0205854), wk =   0.0312500
        k(   46) = (   0.3125000   0.0625000  -0.0617562), wk =   0.0312500
        k(   47) = (   0.3125000   0.0625000  -0.1029270), wk =   0.0312500
        k(   48) = (   0.3125000   0.0625000  -0.1440978), wk =   0.0312500
        k(   49) = (   0.4375000   0.0625000  -0.0205854), wk =   0.0312500
        k(   50) = (   0.4375000   0.0625000  -0.0617562), wk =   0.0312500
        k(   51) = (   0.4375000   0.0625000  -0.1029270), wk =   0.0312500
        k(   52) = (   0.4375000   0.0625000  -0.1440978), wk =   0.0312500
        k(   53) = (   0.3125000   0.1875000  -0.0205854), wk =   0.0312500
        k(   54) = (   0.3125000   0.1875000  -0.0617562), wk =   0.0312500
        k(   55) = (   0.3125000   0.1875000  -0.1029270), wk =   0.0312500
        k(   56) = (   0.3125000   0.1875000  -0.1440978), wk =   0.0312500
        k(   57) = (   0.4375000   0.1875000  -0.0205854), wk =   0.0312500
        k(   58) = (   0.4375000   0.1875000  -0.0617562), wk =   0.0312500
        k(   59) = (   0.4375000   0.1875000  -0.1029270), wk =   0.0312500
        k(   60) = (   0.4375000   0.1875000  -0.1440978), wk =   0.0312500
        k(   61) = (   0.4375000   0.3125000  -0.0205854), wk =   0.0312500
        k(   62) = (   0.4375000   0.3125000  -0.0617562), wk =   0.0312500
        k(   63) = (   0.4375000   0.3125000  -0.1029270), wk =   0.0312500
        k(   64) = (   0.4375000   0.3125000  -0.1440978), wk =   0.0312500

                       cryst. coord.
        k(    1) = (   0.0625000   0.0625000   0.0625000), wk =   0.0312500
        k(    2) = (   0.0625000   0.0625000   0.1875000), wk =   0.0312500
        k(    3) = (   0.0625000   0.0625000   0.3125000), wk =   0.0312500
        k(    4) = (   0.0625000   0.0625000   0.4375000), wk =   0.0312500
        k(    5) = (   0.0625000   0.1875000   0.0625000), wk =   0.0312500
        k(    6) = (   0.0625000   0.1875000   0.1875000), wk =   0.0312500
        k(    7) = (   0.0625000   0.1875000   0.3125000), wk =   0.0312500
        k(    8) = (   0.0625000   0.1875000   0.4375000), wk =   0.0312500
        k(    9) = (   0.0625000   0.3125000   0.0625000), wk =   0.0312500
        k(   10) = (   0.0625000   0.3125000   0.1875000), wk =   0.0312500
        k(   11) = (   0.0625000   0.3125000   0.3125000), wk =   0.0312500
        k(   12) = (   0.0625000   0.3125000   0.4375000), wk =   0.0312500
        k(   13) = (   0.0625000   0.4375000   0.0625000), wk =   0.0312500
        k(   14) = (   0.0625000   0.4375000   0.1875000), wk =   0.0312500
        k(   15) = (   0.0625000   0.4375000   0.3125000), wk =   0.0312500
        k(   16) = (   0.0625000   0.4375000   0.4375000), wk =   0.0312500
        k(   17) = (   0.1875000   0.1875000   0.0625000), wk =   0.0312500
        k(   18) = (   0.1875000   0.1875000   0.1875000), wk =   0.0312500
        k(   19) = (   0.1875000   0.1875000   0.3125000), wk =   0.0312500
        k(   20) = (   0.1875000   0.1875000   0.4375000), wk =   0.0312500
        k(   21) = (   0.1875000   0.3125000   0.0625000), wk =   0.0312500
        k(   22) = (   0.1875000   0.3125000   0.1875000), wk =   0.0312500
        k(   23) = (   0.1875000   0.3125000   0.3125000), wk =   0.0312500
        k(   24) = (   0.1875000   0.3125000   0.4375000), wk =   0.0312500
        k(   25) = (   0.1875000   0.4375000   0.0625000), wk =   0.0312500
        k(   26) = (   0.1875000   0.4375000   0.1875000), wk =   0.0312500
        k(   27) = (   0.1875000   0.4375000   0.3125000), wk =   0.0312500
        k(   28) = (   0.1875000   0.4375000   0.4375000), wk =   0.0312500
        k(   29) = (   0.3125000   0.3125000   0.0625000), wk =   0.0312500
        k(   30) = (   0.3125000   0.3125000   0.1875000), wk =   0.0312500
        k(   31) = (   0.3125000   0.3125000   0.3125000), wk =   0.0312500
        k(   32) = (   0.3125000   0.3125000   0.4375000), wk =   0.0312500
        k(   33) = (   0.3125000   0.4375000   0.0625000), wk =   0.0312500
        k(   34) = (   0.3125000   0.4375000   0.1875000), wk =   0.0312500
        k(   35) = (   0.3125000   0.4375000   0.3125000), wk =   0.0312500
        k(   36) = (   0.3125000   0.4375000   0.4375000), wk =   0.0312500
        k(   37) = (   0.4375000   0.4375000   0.0625000), wk =   0.0312500
        k(   38) = (   0.4375000   0.4375000   0.1875000), wk =   0.0312500
        k(   39) = (   0.4375000   0.4375000   0.3125000), wk =   0.0312500
        k(   40) = (   0.4375000   0.4375000   0.4375000), wk =   0.0312500
        k(   41) = (   0.1875000   0.0625000  -0.0625000), wk =   0.0312500
        k(   42) = (   0.1875000   0.0625000  -0.1875000), wk =   0.0312500
        k(   43) = (   0.1875000   0.0625000  -0.3125000), wk =   0.0312500
        k(   44) = (   0.1875000   0.0625000  -0.4375000), wk =   0.0312500
        k(   45) = (   0.3125000   0.0625000  -0.0625000), wk =   0.0312500
        k(   46) = (   0.3125000   0.0625000  -0.1875000), wk =   0.0312500
        k(   47) = (   0.3125000   0.0625000  -0.3125000), wk =   0.0312500
        k(   48) = (   0.3125000   0.0625000  -0.4375000), wk =   0.0312500
        k(   49) = (   0.4375000   0.0625000  -0.0625000), wk =   0.0312500
        k(   50) = (   0.4375000   0.0625000  -0.1875000), wk =   0.0312500
        k(   51) = (   0.4375000   0.0625000  -0.3125000), wk =   0.0312500
        k(   52) = (   0.4375000   0.0625000  -0.4375000), wk =   0.0312500
        k(   53) = (   0.3125000   0.1875000  -0.0625000), wk =   0.0312500
        k(   54) = (   0.3125000   0.1875000  -0.1875000), wk =   0.0312500
        k(   55) = (   0.3125000   0.1875000  -0.3125000), wk =   0.0312500
        k(   56) = (   0.3125000   0.1875000  -0.4375000), wk =   0.0312500
        k(   57) = (   0.4375000   0.1875000  -0.0625000), wk =   0.0312500
        k(   58) = (   0.4375000   0.1875000  -0.1875000), wk =   0.0312500
        k(   59) = (   0.4375000   0.1875000  -0.3125000), wk =   0.0312500
        k(   60) = (   0.4375000   0.1875000  -0.4375000), wk =   0.0312500
        k(   61) = (   0.4375000   0.3125000  -0.0625000), wk =   0.0312500
        k(   62) = (   0.4375000   0.3125000  -0.1875000), wk =   0.0312500
        k(   63) = (   0.4375000   0.3125000  -0.3125000), wk =   0.0312500
        k(   64) = (   0.4375000   0.3125000  -0.4375000), wk =   0.0312500

     Dense  grid:   230487 G-vectors     FFT dimensions: (  54,  54, 160)

     Smooth grid:    68375 G-vectors     FFT dimensions: (  36,  36, 108)

     Dynamical RAM for                 wfc:       2.08 MB

     Dynamical RAM for     wfc (w. buffer):       2.08 MB

     Dynamical RAM for           str. fact:       3.52 MB

     Dynamical RAM for           local pot:       0.00 MB

     Dynamical RAM for          nlocal pot:       5.41 MB

     Dynamical RAM for                qrad:       9.94 MB

     Dynamical RAM for          rho,v,vnew:       5.31 MB

     Dynamical RAM for           G-vectors:       3.43 MB

     Dynamical RAM for          h,s,v(r/c):       0.75 MB

     Dynamical RAM for          <psi|beta>:       0.16 MB

     Dynamical RAM for                 psi:       4.17 MB

     Dynamical RAM for                hpsi:       4.17 MB

     Dynamical RAM for                spsi:       4.17 MB

     Dynamical RAM for      wfcinit/wfcrot:       5.22 MB

     Dynamical RAM for           addusdens:     186.41 MB

     Estimated static dynamical RAM per process >      38.53 MB

     Estimated max dynamical RAM per process >     224.94 MB

     Estimated total dynamical RAM >     899.77 MB

     The potential is recalculated from file :
     ./YBCO7/YBCO7.save/charge-density

     Starting wfcs are   78 randomized atomic wfcs

     Band Structure Calculation
     Davidson diagonalization with overlap

     Computing kpt #:     1  of    64
     c_bands:  1 eigenvalues not converged
     total cpu time spent up to now is        3.4 secs

     Computing kpt #:     2  of    64
     c_bands:  1 eigenvalues not converged
     total cpu time spent up to now is        5.8 secs

     Computing kpt #:     3  of    64
     total cpu time spent up to now is        8.5 secs

     Computing kpt #:     4  of    64
     total cpu time spent up to now is       11.0 secs

     Computing kpt #:     5  of    64
     c_bands:  1 eigenvalues not converged
     total cpu time spent up to now is       13.7 secs

     Computing kpt #:     6  of    64
     c_bands:  1 eigenvalues not converged
     total cpu time spent up to now is       16.5 secs

     Computing kpt #:     7  of    64
     total cpu time spent up to now is       19.0 secs

     Computing kpt #:     8  of    64
     total cpu time spent up to now is       21.5 secs

     Computing kpt #:     9  of    64
     c_bands:  1 eigenvalues not converged
     total cpu time spent up to now is       24.3 secs

     Computing kpt #:    10  of    64
     c_bands:  1 eigenvalues not converged
     total cpu time spent up to now is       27.1 secs

     Computing kpt #:    11  of    64
     c_bands:  1 eigenvalues not converged
     total cpu time spent up to now is       29.9 secs

     Computing kpt #:    12  of    64
     total cpu time spent up to now is       32.7 secs

     Computing kpt #:    13  of    64
     c_bands:  1 eigenvalues not converged
     total cpu time spent up to now is       35.4 secs

     Computing kpt #:    14  of    64
     c_bands:  1 eigenvalues not converged
     total cpu time spent up to now is       38.2 secs

     Computing kpt #:    15  of    64
     c_bands:  1 eigenvalues not converged
     total cpu time spent up to now is       41.0 secs

     Computing kpt #:    16  of    64
     c_bands:  1 eigenvalues not converged
     total cpu time spent up to now is       44.0 secs

     Computing kpt #:    17  of    64
     c_bands:  1 eigenvalues not converged
     total cpu time spent up to now is       46.8 secs

     Computing kpt #:    18  of    64
     c_bands:  1 eigenvalues not converged
     total cpu time spent up to now is       49.6 secs

     Computing kpt #:    19  of    64
     total cpu time spent up to now is       52.2 secs

     Computing kpt #:    20  of    64
     total cpu time spent up to now is       54.6 secs

     Computing kpt #:    21  of    64
     c_bands:  1 eigenvalues not converged
     total cpu time spent up to now is       57.5 secs

     Computing kpt #:    22  of    64
     c_bands:  1 eigenvalues not converged
     total cpu time spent up to now is       60.3 secs

     Computing kpt #:    23  of    64
     c_bands:  1 eigenvalues not converged
     total cpu time spent up to now is       63.2 secs

     Computing kpt #:    24  of    64
     total cpu time spent up to now is       65.9 secs

     Computing kpt #:    25  of    64
     total cpu time spent up to now is       68.8 secs

     Computing kpt #:    26  of    64
     c_bands:  2 eigenvalues not converged
     total cpu time spent up to now is       71.6 secs

     Computing kpt #:    27  of    64
     c_bands:  1 eigenvalues not converged
     total cpu time spent up to now is       74.4 secs

     Computing kpt #:    28  of    64
     c_bands:  1 eigenvalues not converged
     total cpu time spent up to now is       77.3 secs

     Computing kpt #:    29  of    64
     c_bands:  1 eigenvalues not converged
     total cpu time spent up to now is       80.0 secs

     Computing kpt #:    30  of    64
     c_bands:  1 eigenvalues not converged
     total cpu time spent up to now is       82.8 secs

     Computing kpt #:    31  of    64
     c_bands:  1 eigenvalues not converged
     total cpu time spent up to now is       85.6 secs

     Computing kpt #:    32  of    64
     c_bands:  1 eigenvalues not converged
     total cpu time spent up to now is       88.4 secs

     Computing kpt #:    33  of    64
     c_bands:  1 eigenvalues not converged
     total cpu time spent up to now is       91.3 secs

     Computing kpt #:    34  of    64
     c_bands:  1 eigenvalues not converged
     total cpu time spent up to now is       94.1 secs

     Computing kpt #:    35  of    64
     c_bands:  1 eigenvalues not converged
     total cpu time spent up to now is       97.0 secs

     Computing kpt #:    36  of    64
     total cpu time spent up to now is       99.8 secs

     Computing kpt #:    37  of    64
     total cpu time spent up to now is      102.4 secs

     Computing kpt #:    38  of    64
     total cpu time spent up to now is      105.1 secs

     Computing kpt #:    39  of    64
     total cpu time spent up to now is      107.6 secs

     Computing kpt #:    40  of    64
     total cpu time spent up to now is      110.4 secs

     Computing kpt #:    41  of    64
     c_bands:  2 eigenvalues not converged
     total cpu time spent up to now is      113.3 secs

     Computing kpt #:    42  of    64
     c_bands:  1 eigenvalues not converged
     total cpu time spent up to now is      116.1 secs

     Computing kpt #:    43  of    64
     total cpu time spent up to now is      118.6 secs

     Computing kpt #:    44  of    64
     total cpu time spent up to now is      121.1 secs

     Computing kpt #:    45  of    64
     total cpu time spent up to now is      124.0 secs

     Computing kpt #:    46  of    64
     total cpu time spent up to now is      126.7 secs

     Computing kpt #:    47  of    64
     total cpu time spent up to now is      129.4 secs

     Computing kpt #:    48  of    64
     total cpu time spent up to now is      132.0 secs

     Computing kpt #:    49  of    64
     c_bands:  1 eigenvalues not converged
     total cpu time spent up to now is      134.9 secs

     Computing kpt #:    50  of    64
     c_bands:  2 eigenvalues not converged
     total cpu time spent up to now is      137.8 secs

     Computing kpt #:    51  of    64
     c_bands:  1 eigenvalues not converged
     total cpu time spent up to now is      140.7 secs

     Computing kpt #:    52  of    64
     c_bands:  1 eigenvalues not converged
     total cpu time spent up to now is      143.4 secs

     Computing kpt #:    53  of    64
     c_bands:  1 eigenvalues not converged
     total cpu time spent up to now is      146.3 secs

     Computing kpt #:    54  of    64
     total cpu time spent up to now is      149.1 secs

     Computing kpt #:    55  of    64
     total cpu time spent up to now is      151.8 secs

     Computing kpt #:    56  of    64
     total cpu time spent up to now is      154.6 secs

     Computing kpt #:    57  of    64
     total cpu time spent up to now is      157.6 secs

     Computing kpt #:    58  of    64
     c_bands:  1 eigenvalues not converged
     total cpu time spent up to now is      160.4 secs

     Computing kpt #:    59  of    64
     total cpu time spent up to now is      163.4 secs

     Computing kpt #:    60  of    64
     total cpu time spent up to now is      166.2 secs

     Computing kpt #:    61  of    64
     c_bands:  1 eigenvalues not converged
     total cpu time spent up to now is      169.2 secs

     Computing kpt #:    62  of    64
     c_bands:  1 eigenvalues not converged
     total cpu time spent up to now is      172.0 secs

     Computing kpt #:    63  of    64
     total cpu time spent up to now is      174.8 secs

     Computing kpt #:    64  of    64
     total cpu time spent up to now is      177.5 secs

     ethr =  9.43E-12,  avg # of iterations =113.1

     total cpu time spent up to now is      177.6 secs

     End of band structure calculation

          k = 0.0625 0.0625 0.0206 (  8562 PWs)   bands (ev):

   -29.9849 -14.7681 -14.7320 -10.8478 -10.1315 -10.1173  -7.8359  -6.6863
    -6.6366  -6.5192  -6.2660  -5.6386  -5.5447   0.0040   0.0244   0.2845
     0.3195   0.4215   0.4616   5.1620   5.2017   5.3000   5.4965   5.5331
     5.6408   6.5023   6.6802   6.8073   7.0228   7.2746   7.3421   7.4799
     7.6237   7.6750   7.7839   7.8671   8.0778   8.0884   8.1097   8.1260
     8.4887   8.5761   8.6848   8.7839   8.8362   8.9043   8.9705   9.3826
     9.6412   9.7659   9.9735  10.1185  10.2726  10.3791  10.4154  13.5004
    13.9832  14.9664  15.0679  15.9589  16.0867  16.9114  17.2226  17.5481

     occupation numbers 
     1.0000   1.0000   1.0000   1.0000   1.0000   1.0000   1.0000   1.0000
     1.0000   1.0000   1.0000   1.0000   1.0000   1.0000   1.0000   1.0000
     1.0000   1.0000   1.0000   1.0000   1.0000   1.0000   1.0000   1.0000
     1.0000   1.0000   1.0000   1.0000   1.0000   1.0000   1.0000   1.0000
     1.0000   1.0000   1.0000   1.0000   1.0000   1.0000   1.0000   1.0000
     1.0000   1.0000   1.0000   1.0000   1.0000   1.0000   1.0000   1.0000
     1.0000   1.0000   1.0000   1.0000   1.0000   1.0156   0.8439   0.0000
     0.0000   0.0000   0.0000   0.0000   0.0000   0.0000   0.0000   0.0000

          k = 0.0625 0.0625 0.0618 (  8567 PWs)   bands (ev):

   -29.9849 -14.7689 -14.7312 -10.8480 -10.1315 -10.1173  -7.8340  -6.6986
    -6.6272  -6.5193  -6.2660  -5.6403  -5.5417  -0.0151   0.0426   0.2845
     0.3200   0.4205   0.4625   5.1570   5.2006   5.3159   5.4920   5.5332
     5.6380   6.5051   6.6770   6.8010   7.0301   7.2720   7.3354   7.4816
     7.6066   7.6673   7.7912   7.8802   8.0780   8.0929   8.1072   8.1302
     8.4861   8.5714   8.6842   8.7926   8.8421   8.9138   8.9800   9.4011
     9.6222   9.7601   9.9765  10.0798  10.2624  10.3749  10.4395  13.5449
    13.9762  14.9113  15.1406  15.9501  16.0093  16.6671  17.3467  17.6142

     occupation numbers 
     1.0000   1.0000   1.0000   1.0000   1.0000   1.0000   1.0000   1.0000
     1.0000   1.0000   1.0000   1.0000   1.0000   1.0000   1.0000   1.0000
     1.0000   1.0000   1.0000   1.0000   1.0000   1.0000   1.0000   1.0000
     1.0000   1.0000   1.0000   1.0000   1.0000   1.0000   1.0000   1.0000
     1.0000   1.0000   1.0000   1.0000   1.0000   1.0000   1.0000   1.0000
     1.0000   1.0000   1.0000   1.0000   1.0000   1.0000   1.0000   1.0000
     1.0000   1.0000   1.0000   1.0000   1.0000   1.0137   0.8252   0.0000
     0.0000   0.0000   0.0000   0.0000   0.0000   0.0000   0.0000   0.0000

          k = 0.0625 0.0625 0.1029 (  8565 PWs)   bands (ev):

   -29.9849 -14.7700 -14.7301 -10.8483 -10.1315 -10.1172  -7.8312  -6.7119
    -6.6179  -6.5193  -6.2660  -5.6424  -5.5376  -0.0300   0.0562   0.2847
     0.3207   0.4192   0.4637   5.1511   5.1992   5.3397   5.4829   5.5336
     5.6341   6.5092   6.6723   6.7914   7.0424   7.2661   7.3261   7.4844
     7.5847   7.6590   7.7990   7.8964   8.0786   8.0991   8.1060   8.1339
     8.4805   8.5649   8.6869   8.7854   8.8610   8.9385   8.9916   9.4351
     9.5865   9.7535   9.9750  10.0273  10.2549  10.3743  10.4612  13.6189
    13.9558  14.8449  15.2649  15.8314  15.9700  16.4676  17.4491  17.5962

     occupation numbers 
     1.0000   1.0000   1.0000   1.0000   1.0000   1.0000   1.0000   1.0000
     1.0000   1.0000   1.0000   1.0000   1.0000   1.0000   1.0000   1.0000
     1.0000   1.0000   1.0000   1.0000   1.0000   1.0000   1.0000   1.0000
     1.0000   1.0000   1.0000   1.0000   1.0000   1.0000   1.0000   1.0000
     1.0000   1.0000   1.0000   1.0000   1.0000   1.0000   1.0000   1.0000
     1.0000   1.0000   1.0000   1.0000   1.0000   1.0000   1.0000   1.0000
     1.0000   1.0000   1.0000   1.0000   1.0000   1.0111   0.8057   0.0000
     0.0000   0.0000   0.0000   0.0000   0.0000   0.0000   0.0000   0.0000

          k = 0.0625 0.0625 0.1441 (  8564 PWs)   bands (ev):

   -29.9849 -14.7707 -14.7293 -10.8485 -10.1315 -10.1173  -7.8293  -6.7200
    -6.6128  -6.5193  -6.2660  -5.6439  -5.5348  -0.0381   0.0635   0.2848
     0.3212   0.4184   0.4645   5.1475   5.1983   5.3587   5.4736   5.5339
     5.6313   6.5123   6.6687   6.7844   7.0528   7.2598   7.3202   7.4868
     7.5704   7.6542   7.8035   7.9068   8.0791   8.1039   8.1059   8.1356
     8.4752   8.5604   8.6912   8.7769   8.8678   8.9705   8.9959   9.4766
     9.5434   9.7497   9.9569  10.0052  10.2518  10.3748  10.4728  13.6870
    13.9260  14.8006  15.4343  15.6347  15.9679  16.3651  17.4858  17.6184

     occupation numbers 
     1.0000   1.0000   1.0000   1.0000   1.0000   1.0000   1.0000   1.0000
     1.0000   1.0000   1.0000   1.0000   1.0000   1.0000   1.0000   1.0000
     1.0000   1.0000   1.0000   1.0000   1.0000   1.0000   1.0000   1.0000
     1.0000   1.0000   1.0000   1.0000   1.0000   1.0000   1.0000   1.0000
     1.0000   1.0000   1.0000   1.0000   1.0000   1.0000   1.0000   1.0000
     1.0000   1.0000   1.0000   1.0000   1.0000   1.0000   1.0000   1.0000
     1.0000   1.0000   1.0000   1.0000   1.0000   1.0092   0.7942   0.0000
     0.0000   0.0000   0.0000   0.0000   0.0000   0.0000   0.0000   0.0000

          k = 0.0625 0.1875 0.0206 (  8530 PWs)   bands (ev):

   -29.9794 -14.7203 -14.6852 -10.7589 -10.3911 -10.1123  -7.5722  -6.7242
    -6.6018  -6.4389  -6.3064  -5.7648  -5.6885   0.0058   0.0684   0.2251
     0.2839   0.5310   0.5899   4.9051   4.9788   5.2892   5.4244   5.5251
     5.7072   5.8642   6.5194   6.5549   6.8135   6.9569   7.0640   7.1907
     7.3720   7.4299   7.7564   7.8732   7.9307   7.9853   8.0688   8.2135
     8.4869   8.7381   8.7805   8.8409   8.8977   9.2545   9.2648   9.4192
     9.5151   9.8664   9.9986  10.0739  10.1694  10.5627  11.2933  14.1223
    14.3245  15.5990  15.6495  15.8523  16.2171  17.1644  17.3806  17.7345

     occupation numbers 
     1.0000   1.0000   1.0000   1.0000   1.0000   1.0000   1.0000   1.0000
     1.0000   1.0000   1.0000   1.0000   1.0000   1.0000   1.0000   1.0000
     1.0000   1.0000   1.0000   1.0000   1.0000   1.0000   1.0000   1.0000
     1.0000   1.0000   1.0000   1.0000   1.0000   1.0000   1.0000   1.0000
     1.0000   1.0000   1.0000   1.0000   1.0000   1.0000   1.0000   1.0000
     1.0000   1.0000   1.0000   1.0000   1.0000   1.0000   1.0000   1.0000
     1.0000   1.0000   1.0000   1.0000   1.0210   0.9096  -0.0425   0.0000
     0.0000   0.0000   0.0000   0.0000   0.0000   0.0000   0.0000   0.0000

          k = 0.0625 0.1875 0.0618 (  8541 PWs)   bands (ev):

   -29.9794 -14.7210 -14.6845 -10.7591 -10.3911 -10.1123  -7.5704  -6.7262
    -6.6020  -6.4399  -6.3057  -5.7671  -5.6851  -0.0058   0.0796   0.2274
     0.2824   0.5304   0.5900   4.9129   4.9766   5.2875   5.4232   5.5223
     5.7073   5.8504   6.5405   6.5700   6.8085   6.9492   7.0650   7.1942
     7.3367   7.4298   7.7500   7.8776   7.9195   8.0160   8.0724   8.2148
     8.4828   8.7213   8.7423   8.8982   8.9494   9.2367   9.2500   9.4336
     9.5237   9.8407   9.9366  10.1325  10.1672  10.5281  11.3136  14.1321
    14.3236  15.5880  15.6783  15.8566  16.2426  16.9023  17.3627  17.6785

     occupation numbers 
     1.0000   1.0000   1.0000   1.0000   1.0000   1.0000   1.0000   1.0000
     1.0000   1.0000   1.0000   1.0000   1.0000   1.0000   1.0000   1.0000
     1.0000   1.0000   1.0000   1.0000   1.0000   1.0000   1.0000   1.0000
     1.0000   1.0000   1.0000   1.0000   1.0000   1.0000   1.0000   1.0000
     1.0000   1.0000   1.0000   1.0000   1.0000   1.0000   1.0000   1.0000
     1.0000   1.0000   1.0000   1.0000   1.0000   1.0000   1.0000   1.0000
     1.0000   1.0000   1.0000   1.0000   1.0230   0.9366  -0.0487   0.0000
     0.0000   0.0000   0.0000   0.0000   0.0000   0.0000   0.0000   0.0000

          k = 0.0625 0.1875 0.1029 (  8544 PWs)   bands (ev):

   -29.9794 -14.7219 -14.6835 -10.7593 -10.3911 -10.1123  -7.5680  -6.7292
    -6.6023  -6.4412  -6.3048  -5.7700  -5.6806  -0.0183   0.0916   0.2306
     0.2803   0.5296   0.5902   4.9255   4.9721   5.2850   5.4214   5.5184
     5.7073   5.8327   6.5355   6.6326   6.8022   6.9320   7.0662   7.2013
     7.2850   7.4287   7.7416   7.8718   7.9285   8.0439   8.0775   8.2172
     8.4770   8.6903   8.7305   8.9572   9.0251   9.2096   9.2220   9.4511
     9.5394   9.7975   9.8851  10.1280  10.2219  10.4747  11.3399  14.1467
    14.3217  15.5472  15.7757  15.8664  16.2323  16.6858  17.3322  17.5594

     occupation numbers 
     1.0000   1.0000   1.0000   1.0000   1.0000   1.0000   1.0000   1.0000
     1.0000   1.0000   1.0000   1.0000   1.0000   1.0000   1.0000   1.0000
     1.0000   1.0000   1.0000   1.0000   1.0000   1.0000   1.0000   1.0000
     1.0000   1.0000   1.0000   1.0000   1.0000   1.0000   1.0000   1.0000
     1.0000   1.0000   1.0000   1.0000   1.0000   1.0000   1.0000   1.0000
     1.0000   1.0000   1.0000   1.0000   1.0000   1.0000   1.0000   1.0000
     1.0000   1.0000   1.0000   1.0000   1.0219   0.9641  -0.0550   0.0000
     0.0000   0.0000   0.0000   0.0000   0.0000   0.0000   0.0000   0.0000

          k = 0.0625 0.1875 0.1441 (  8541 PWs)   bands (ev):

   -29.9794 -14.7225 -14.6829 -10.7595 -10.3911 -10.1123  -7.5662  -6.7313
    -6.6026  -6.4422  -6.3041  -5.7719  -5.6776  -0.0257   0.0986   0.2329
     0.2787   0.5291   0.5903   4.9369   4.9666   5.2831   5.4202   5.5156
     5.7070   5.8214   6.5299   6.6890   6.7982   6.9102   7.0670   7.2139
     7.2404   7.4277   7.7360   7.8659   7.9396   8.0591   8.0813   8.2195
     8.4729   8.6708   8.7274   8.9984   9.1016   9.1795   9.1872   9.4625
     9.5541   9.7620   9.8520  10.1172  10.2757  10.4254  11.3570  14.1577
    14.3196  15.5199  15.8427  15.9504  16.1181  16.5943  17.3522  17.4469

     occupation numbers 
     1.0000   1.0000   1.0000   1.0000   1.0000   1.0000   1.0000   1.0000
     1.0000   1.0000   1.0000   1.0000   1.0000   1.0000   1.0000   1.0000
     1.0000   1.0000   1.0000   1.0000   1.0000   1.0000   1.0000   1.0000
     1.0000   1.0000   1.0000   1.0000   1.0000   1.0000   1.0000   1.0000
     1.0000   1.0000   1.0000   1.0000   1.0000   1.0000   1.0000   1.0000
     1.0000   1.0000   1.0000   1.0000   1.0000   1.0000   1.0000   1.0000
     1.0000   1.0000   1.0000   1.0000   1.0192   0.9813  -0.0582   0.0000
     0.0000   0.0000   0.0000   0.0000   0.0000   0.0000   0.0000   0.0000

          k = 0.0625 0.3125 0.0206 (  8540 PWs)   bands (ev):

   -29.9716 -14.6505 -14.6172 -10.6958 -10.6211 -10.1006  -7.2411  -6.9510
    -6.5182  -6.3276  -6.2672  -5.9383  -5.8770   0.0241   0.1318   0.2344
     0.3234   0.6078   0.6735   4.4249   4.6325   4.8364   5.4655   5.4766
     5.5744   5.8464   6.0881   6.5405   6.5534   6.6468   6.7690   7.0060
     7.0508   7.2418   7.5522   7.6528   7.8411   7.8907   7.9442   8.2502
     8.5436   8.7440   8.9828   9.0135   9.1361   9.3172   9.4974   9.5550
     9.6887   9.8397   9.9700  10.1140  10.2012  10.6815  12.1119  14.7154
    15.1158  15.7126  16.1333  16.5486  16.7146  17.2050  17.2975  18.0792

     occupation numbers 
     1.0000   1.0000   1.0000   1.0000   1.0000   1.0000   1.0000   1.0000
     1.0000   1.0000   1.0000   1.0000   1.0000   1.0000   1.0000   1.0000
     1.0000   1.0000   1.0000   1.0000   1.0000   1.0000   1.0000   1.0000
     1.0000   1.0000   1.0000   1.0000   1.0000   1.0000   1.0000   1.0000
     1.0000   1.0000   1.0000   1.0000   1.0000   1.0000   1.0000   1.0000
     1.0000   1.0000   1.0000   1.0000   1.0000   1.0000   1.0000   1.0000
     1.0000   1.0000   1.0000   1.0000   1.0279   0.6347   0.0000   0.0000
     0.0000   0.0000   0.0000   0.0000   0.0000   0.0000   0.0000   0.0000

          k = 0.0625 0.3125 0.0618 (  8539 PWs)   bands (ev):

   -29.9716 -14.6511 -14.6166 -10.6958 -10.6213 -10.1006  -7.2395  -6.9529
    -6.5078  -6.3438  -6.2651  -5.9340  -5.8773   0.0175   0.1399   0.2360
     0.3205   0.6076   0.6732   4.4382   4.6186   4.8383   5.4571   5.4885
     5.5699   5.7815   6.1859   6.5278   6.5599   6.6527   6.7679   7.0023
     7.0385   7.1938   7.5475   7.6695   7.8378   7.8563   7.9877   8.2486
     8.5662   8.7564   8.9672   9.0457   9.1501   9.3283   9.4902   9.5435
     9.6667   9.8389   9.9393  10.0993  10.2471  10.6382  12.1354  14.7396
    15.0840  15.7130  16.1623  16.5838  16.6758  17.0903  17.2991  18.0480

     occupation numbers 
     1.0000   1.0000   1.0000   1.0000   1.0000   1.0000   1.0000   1.0000
     1.0000   1.0000   1.0000   1.0000   1.0000   1.0000   1.0000   1.0000
     1.0000   1.0000   1.0000   1.0000   1.0000   1.0000   1.0000   1.0000
     1.0000   1.0000   1.0000   1.0000   1.0000   1.0000   1.0000   1.0000
     1.0000   1.0000   1.0000   1.0000   1.0000   1.0000   1.0000   1.0000
     1.0000   1.0000   1.0000   1.0000   1.0000   1.0000   1.0000   1.0000
     1.0000   1.0000   1.0000   1.0000   1.0191   0.7069   0.0000   0.0000
     0.0000   0.0000   0.0000   0.0000   0.0000   0.0000   0.0000   0.0000

          k = 0.0625 0.3125 0.1029 (  8538 PWs)   bands (ev):

   -29.9716 -14.6519 -14.6158 -10.6958 -10.6214 -10.1006  -7.2372  -6.9556
    -6.4899  -6.3677  -6.2641  -5.9277  -5.8779   0.0094   0.1504   0.2385
     0.3162   0.6074   0.6729   4.4615   4.5947   4.8408   5.4509   5.5018
     5.5623   5.7208   6.3011   6.5204   6.5605   6.6613   6.7677   6.9738
     7.0206   7.1421   7.5409   7.6946   7.7990   7.8636   8.0214   8.2462
     8.6002   8.7657   8.9704   9.0684   9.1781   9.3568   9.4786   9.5230
     9.6230   9.8392   9.8972  10.0875  10.3118  10.5678  12.1670  14.7837
    15.0291  15.7134  16.2176  16.5888  16.6574  17.0109  17.2064  18.0015

     occupation numbers 
     1.0000   1.0000   1.0000   1.0000   1.0000   1.0000   1.0000   1.0000
     1.0000   1.0000   1.0000   1.0000   1.0000   1.0000   1.0000   1.0000
     1.0000   1.0000   1.0000   1.0000   1.0000   1.0000   1.0000   1.0000
     1.0000   1.0000   1.0000   1.0000   1.0000   1.0000   1.0000   1.0000
     1.0000   1.0000   1.0000   1.0000   1.0000   1.0000   1.0000   1.0000
     1.0000   1.0000   1.0000   1.0000   1.0000   1.0000   1.0000   1.0000
     1.0000   1.0000   1.0000   1.0000   1.0042   0.7941   0.0000   0.0000
     0.0000   0.0000   0.0000   0.0000   0.0000   0.0000   0.0000   0.0000

          k = 0.0625 0.3125 0.1441 (  8528 PWs)   bands (ev):

   -29.9716 -14.6524 -14.6153 -10.6958 -10.6216 -10.1006  -7.2356  -6.9574
    -6.4727  -6.3882  -6.2643  -5.9231  -5.8786   0.0043   0.1573   0.2404
     0.3130   0.6072   0.6726   4.4851   4.5707   4.8426   5.4476   5.5132
     5.5548   5.6862   6.3807   6.5294   6.5526   6.6682   6.7697   6.9169
     7.0165   7.1199   7.5361   7.7210   7.7653   7.8697   8.0397   8.2444
     8.6266   8.7657   8.9803   9.0791   9.2021   9.4100   9.4659   9.4908
     9.5776   9.8443   9.8648  10.0816  10.3795  10.4940  12.1884  14.8330
    14.9721  15.7136  16.2807  16.5089  16.7152  16.9950  17.0918  17.9757

     occupation numbers 
     1.0000   1.0000   1.0000   1.0000   1.0000   1.0000   1.0000   1.0000
     1.0000   1.0000   1.0000   1.0000   1.0000   1.0000   1.0000   1.0000
     1.0000   1.0000   1.0000   1.0000   1.0000   1.0000   1.0000   1.0000
     1.0000   1.0000   1.0000   1.0000   1.0000   1.0000   1.0000   1.0000
     1.0000   1.0000   1.0000   1.0000   1.0000   1.0000   1.0000   1.0000
     1.0000   1.0000   1.0000   1.0000   1.0000   1.0000   1.0000   1.0000
     1.0000   1.0000   1.0000   1.0000   0.9822   0.8581   0.0000   0.0000
     0.0000   0.0000   0.0000   0.0000   0.0000   0.0000   0.0000   0.0000

          k = 0.0625 0.4375 0.0206 (  8535 PWs)   bands (ev):

   -29.9660 -14.5996 -14.5677 -10.8820 -10.5128 -10.0922  -7.1455  -6.9985
    -6.5441  -6.2162  -6.1857  -6.0583  -6.0200   0.0639   0.1710   0.2727
     0.3697   0.6397   0.6968   4.1095   4.3516   4.3824   5.4191   5.6245
     5.6566   5.8187   5.9241   6.1790   6.3346   6.7001   6.7273   6.8614
     6.8709   7.0608   7.3504   7.4814   7.6626   7.8579   8.0823   8.2560
     8.5217   8.8038   8.9496   9.1182   9.1352   9.4804   9.6440   9.6605
     9.7603   9.8926  10.0730  10.1400  10.3583  10.6028  12.5232  15.1205
    15.5769  15.6165  16.3900  16.9239  17.0222  17.2795  17.5822  18.2921

     occupation numbers 
     1.0000   1.0000   1.0000   1.0000   1.0000   1.0000   1.0000   1.0000
     1.0000   1.0000   1.0000   1.0000   1.0000   1.0000   1.0000   1.0000
     1.0000   1.0000   1.0000   1.0000   1.0000   1.0000   1.0000   1.0000
     1.0000   1.0000   1.0000   1.0000   1.0000   1.0000   1.0000   1.0000
     1.0000   1.0000   1.0000   1.0000   1.0000   1.0000   1.0000   1.0000
     1.0000   1.0000   1.0000   1.0000   1.0000   1.0000   1.0000   1.0000
     1.0000   1.0000   1.0000   1.0000   0.9520   0.6942   0.0000   0.0000
     0.0000   0.0000   0.0000   0.0000   0.0000   0.0000   0.0000   0.0000

          k = 0.0625 0.4375 0.0618 (  8525 PWs)   bands (ev):

   -29.9660 -14.6001 -14.5672 -10.8820 -10.5129 -10.0922  -7.1481  -6.9966
    -6.5250  -6.2402  -6.2085  -6.0433  -6.0064   0.0544   0.1817   0.2728
     0.3689   0.6392   0.6967   4.1233   4.3145   4.4059   5.4198   5.6158
     5.6290   5.7650   6.0364   6.1814   6.3532   6.6797   6.7456   6.8542
     6.8635   7.0127   7.3532   7.4617   7.6681   7.8636   8.0849   8.2538
     8.5622   8.8129   8.9735   9.1146   9.1469   9.4778   9.6411   9.6556
     9.7521   9.8516  10.0817  10.1400  10.3631  10.5675  12.5507  15.1700
    15.5790  15.6072  16.3102  16.8385  17.0189  17.3115  17.7286  18.1861

     occupation numbers 
     1.0000   1.0000   1.0000   1.0000   1.0000   1.0000   1.0000   1.0000
     1.0000   1.0000   1.0000   1.0000   1.0000   1.0000   1.0000   1.0000
     1.0000   1.0000   1.0000   1.0000   1.0000   1.0000   1.0000   1.0000
     1.0000   1.0000   1.0000   1.0000   1.0000   1.0000   1.0000   1.0000
     1.0000   1.0000   1.0000   1.0000   1.0000   1.0000   1.0000   1.0000
     1.0000   1.0000   1.0000   1.0000   1.0000   1.0000   1.0000   1.0000
     1.0000   1.0000   1.0000   1.0000   0.9493   0.7347   0.0000   0.0000
     0.0000   0.0000   0.0000   0.0000   0.0000   0.0000   0.0000   0.0000

          k = 0.0625 0.4375 0.1029 (  8530 PWs)   bands (ev):

   -29.9660 -14.6008 -14.5665 -10.8820 -10.5131 -10.0922  -7.1516  -6.9940
    -6.4911  -6.2884  -6.2237  -6.0301  -5.9889   0.0431   0.1946   0.2731
     0.3678   0.6385   0.6966   4.1494   4.2730   4.4216   5.4210   5.5821
     5.6151   5.7391   6.1417   6.1882   6.3920   6.6616   6.7603   6.8067
     6.8614   6.9610   7.3562   7.4357   7.6743   7.8699   8.0891   8.2507
     8.6236   8.8234   8.9842   9.1161   9.1939   9.4739   9.6292   9.6484
     9.7300   9.7947  10.0931  10.1399  10.3740  10.5167  12.5883  15.2596
    15.5611  15.6028  16.1836  16.7555  17.0362  17.3670  17.8583  18.1006

     occupation numbers 
     1.0000   1.0000   1.0000   1.0000   1.0000   1.0000   1.0000   1.0000
     1.0000   1.0000   1.0000   1.0000   1.0000   1.0000   1.0000   1.0000
     1.0000   1.0000   1.0000   1.0000   1.0000   1.0000   1.0000   1.0000
     1.0000   1.0000   1.0000   1.0000   1.0000   1.0000   1.0000   1.0000
     1.0000   1.0000   1.0000   1.0000   1.0000   1.0000   1.0000   1.0000
     1.0000   1.0000   1.0000   1.0000   1.0000   1.0000   1.0000   1.0000
     1.0000   1.0000   1.0000   1.0000   0.9436   0.7847   0.0000   0.0000
     0.0000   0.0000   0.0000   0.0000   0.0000   0.0000   0.0000   0.0000

          k = 0.0625 0.4375 0.1441 (  8535 PWs)   bands (ev):

   -29.9660 -14.6013 -14.5660 -10.8820 -10.5132 -10.0922  -7.1541  -6.9921
    -6.4553  -6.3336  -6.2319  -6.0229  -5.9779   0.0362   0.2028   0.2733
     0.3669   0.6380   0.6966   4.1835   4.2312   4.4295   5.4218   5.5575
     5.6098   5.7282   6.1799   6.2167   6.4472   6.6511   6.7254   6.7740
     6.8610   6.9410   7.3582   7.4181   7.6779   7.8734   8.0924   8.2484
     8.6724   8.8311   8.9691   9.1186   9.2675   9.4699   9.5944   9.6433
     9.6994   9.7703  10.1008  10.1398  10.3884  10.4761  12.6140  15.3618
    15.5089  15.6078  16.0857  16.7147  17.0510  17.4164  17.8787  18.0657

     occupation numbers 
     1.0000   1.0000   1.0000   1.0000   1.0000   1.0000   1.0000   1.0000
     1.0000   1.0000   1.0000   1.0000   1.0000   1.0000   1.0000   1.0000
     1.0000   1.0000   1.0000   1.0000   1.0000   1.0000   1.0000   1.0000
     1.0000   1.0000   1.0000   1.0000   1.0000   1.0000   1.0000   1.0000
     1.0000   1.0000   1.0000   1.0000   1.0000   1.0000   1.0000   1.0000
     1.0000   1.0000   1.0000   1.0000   1.0000   1.0000   1.0000   1.0000
     1.0000   1.0000   1.0000   1.0000   0.9361   0.8181   0.0000   0.0000
     0.0000   0.0000   0.0000   0.0000   0.0000   0.0000   0.0000   0.0000

          k = 0.1875 0.1875 0.0206 (  8539 PWs)   bands (ev):

   -29.9739 -14.6729 -14.6416 -10.6730 -10.3995 -10.3428  -7.3118  -6.7079
    -6.6642  -6.4355  -6.3603  -5.8274  -5.6707  -0.1319  -0.0114   0.0710
     0.1105   0.6614   0.6842   4.6435   4.9004   5.1911   5.2808   5.4609
     5.7240   5.9088   6.3263   6.5404   6.5670   6.6616   6.7613   7.1771
     7.3642   7.5501   7.6552   7.8148   7.9403   7.9978   8.0395   8.2990
     8.6222   8.7975   8.8751   8.8930   8.9442   8.9769   9.3583   9.4360
     9.6544   9.6816  10.2417  10.3594  10.6002  10.8439  11.3238  14.4350
    14.5097  15.5841  16.1426  16.1741  16.3236  17.2728  17.4926  17.6978

     occupation numbers 
     1.0000   1.0000   1.0000   1.0000   1.0000   1.0000   1.0000   1.0000
     1.0000   1.0000   1.0000   1.0000   1.0000   1.0000   1.0000   1.0000
     1.0000   1.0000   1.0000   1.0000   1.0000   1.0000   1.0000   1.0000
     1.0000   1.0000   1.0000   1.0000   1.0000   1.0000   1.0000   1.0000
     1.0000   1.0000   1.0000   1.0000   1.0000   1.0000   1.0000   1.0000
     1.0000   1.0000   1.0000   1.0000   1.0000   1.0000   1.0000   1.0000
     1.0000   1.0000   1.0000   1.0000   0.7301   0.1461  -0.0590   0.0000
     0.0000   0.0000   0.0000   0.0000   0.0000   0.0000   0.0000   0.0000

          k = 0.1875 0.1875 0.0618 (  8528 PWs)   bands (ev):

   -29.9739 -14.6735 -14.6409 -10.6731 -10.3995 -10.3428  -7.3108  -6.7100
    -6.6627  -6.4354  -6.3604  -5.8307  -5.6679  -0.1287  -0.0142   0.0669
     0.1150   0.6624   0.6820   4.6538   4.8926   5.1910   5.2808   5.4573
     5.7347   5.8923   6.3425   6.5137   6.5922   6.6714   6.7642   7.1740
     7.3303   7.4885   7.6576   7.8931   7.9336   8.0112   8.0439   8.2785
     8.6403   8.7955   8.8767   8.9053   8.9501   8.9812   9.3223   9.4665
     9.6471   9.6922  10.2137  10.3207  10.6205  10.8365  11.3469  14.4430
    14.5068  15.5873  16.0879  16.1992  16.4127  17.0100  17.4729  17.6431

     occupation numbers 
     1.0000   1.0000   1.0000   1.0000   1.0000   1.0000   1.0000   1.0000
     1.0000   1.0000   1.0000   1.0000   1.0000   1.0000   1.0000   1.0000
     1.0000   1.0000   1.0000   1.0000   1.0000   1.0000   1.0000   1.0000
     1.0000   1.0000   1.0000   1.0000   1.0000   1.0000   1.0000   1.0000
     1.0000   1.0000   1.0000   1.0000   1.0000   1.0000   1.0000   1.0000
     1.0000   1.0000   1.0000   1.0000   1.0000   1.0000   1.0000   1.0000
     1.0000   1.0000   1.0000   1.0000   0.7040   0.1934  -0.0597   0.0000
     0.0000   0.0000   0.0000   0.0000   0.0000   0.0000   0.0000   0.0000

          k = 0.1875 0.1875 0.1029 (  8537 PWs)   bands (ev):

   -29.9739 -14.6744 -14.6400 -10.6733 -10.3994 -10.3428  -7.3094  -6.7129
    -6.6608  -6.4352  -6.3605  -5.8351  -5.6640  -0.1239  -0.0181   0.0613
     0.1206   0.6644   0.6782   4.6700   4.8800   5.1909   5.2809   5.4521
     5.7544   5.8649   6.3674   6.4883   6.6140   6.6887   6.7685   7.1648
     7.2703   7.4471   7.6608   7.9079   7.9951   8.0317   8.0511   8.2391
     8.6644   8.7942   8.8778   8.9131   8.9566   9.0080   9.2784   9.4951
     9.6371   9.7098  10.1649  10.2761  10.6489  10.8241  11.3769  14.4568
    14.5001  15.5919  16.0429  16.2539  16.4976  16.7990  17.4002  17.4866

     occupation numbers 
     1.0000   1.0000   1.0000   1.0000   1.0000   1.0000   1.0000   1.0000
     1.0000   1.0000   1.0000   1.0000   1.0000   1.0000   1.0000   1.0000
     1.0000   1.0000   1.0000   1.0000   1.0000   1.0000   1.0000   1.0000
     1.0000   1.0000   1.0000   1.0000   1.0000   1.0000   1.0000   1.0000
     1.0000   1.0000   1.0000   1.0000   1.0000   1.0000   1.0000   1.0000
     1.0000   1.0000   1.0000   1.0000   1.0000   1.0000   1.0000   1.0000
     1.0000   1.0000   1.0000   1.0000   0.6637   0.2585  -0.0574   0.0000
     0.0000   0.0000   0.0000   0.0000   0.0000   0.0000   0.0000   0.0000

          k = 0.1875 0.1875 0.1441 (  8541 PWs)   bands (ev):

   -29.9739 -14.6749 -14.6395 -10.6734 -10.3994 -10.3428  -7.3084  -6.7148
    -6.6595  -6.4351  -6.3605  -5.8381  -5.6614  -0.1204  -0.0207   0.0575
     0.1242   0.6668   0.6746   4.6829   4.8695   5.1909   5.2809   5.4485
     5.7767   5.8373   6.3880   6.4699   6.6268   6.7048   6.7724   7.1472
     7.2315   7.4307   7.6630   7.9013   8.0212   8.0550   8.0973   8.1854
     8.6802   8.7942   8.8784   8.9134   8.9580   9.0474   9.2404   9.5114
     9.6297   9.7258  10.1223  10.2513  10.6701  10.8132  11.3967  14.4731
    14.4887  15.5951  16.0197  16.3386  16.4730  16.7243  17.3552  17.3786

     occupation numbers 
     1.0000   1.0000   1.0000   1.0000   1.0000   1.0000   1.0000   1.0000
     1.0000   1.0000   1.0000   1.0000   1.0000   1.0000   1.0000   1.0000
     1.0000   1.0000   1.0000   1.0000   1.0000   1.0000   1.0000   1.0000
     1.0000   1.0000   1.0000   1.0000   1.0000   1.0000   1.0000   1.0000
     1.0000   1.0000   1.0000   1.0000   1.0000   1.0000   1.0000   1.0000
     1.0000   1.0000   1.0000   1.0000   1.0000   1.0000   1.0000   1.0000
     1.0000   1.0000   1.0000   1.0000   0.6310   0.3057  -0.0553   0.0000
     0.0000   0.0000   0.0000   0.0000   0.0000   0.0000   0.0000   0.0000

          k = 0.1875 0.3125 0.0206 (  8540 PWs)   bands (ev):

   -29.9662 -14.6082 -14.5782 -10.6785 -10.5386 -10.3449  -6.9756  -6.8755
    -6.5038  -6.4367  -6.2772  -5.9180  -5.8304  -0.1469  -0.1283   0.0658
     0.0999   0.5648   0.5707   4.1741   4.5589   4.8632   5.2017   5.2397
     5.4882   5.9029   5.9495   6.0862   6.3339   6.6737   6.7874   7.0194
     7.0743   7.2696   7.5206   7.7704   7.9618   8.0878   8.1920   8.3588
     8.5572   8.8141   9.0633   9.1656   9.3235   9.3379   9.4716   9.5886
     9.7273   9.8152  10.1885  10.3726  10.9598  11.2046  12.0790  14.5846
    15.0782  15.4309  16.2213  17.0139  17.1555  17.1871  17.6690  17.8376

     occupation numbers 
     1.0000   1.0000   1.0000   1.0000   1.0000   1.0000   1.0000   1.0000
     1.0000   1.0000   1.0000   1.0000   1.0000   1.0000   1.0000   1.0000
     1.0000   1.0000   1.0000   1.0000   1.0000   1.0000   1.0000   1.0000
     1.0000   1.0000   1.0000   1.0000   1.0000   1.0000   1.0000   1.0000
     1.0000   1.0000   1.0000   1.0000   1.0000   1.0000   1.0000   1.0000
     1.0000   1.0000   1.0000   1.0000   1.0000   1.0000   1.0000   1.0000
     1.0000   1.0000   1.0000   1.0000   0.1202  -0.0821   0.0000   0.0000
     0.0000   0.0000   0.0000   0.0000   0.0000   0.0000   0.0000   0.0000

          k = 0.1875 0.3125 0.0618 (  8536 PWs)   bands (ev):

   -29.9662 -14.6088 -14.5777 -10.6785 -10.5387 -10.3448  -6.9744  -6.8774
    -6.4984  -6.4370  -6.2824  -5.9164  -5.8311  -0.1441  -0.1288   0.0672
     0.0965   0.5614   0.5734   4.1838   4.5459   4.8658   5.2020   5.2390
     5.4899   5.9049   5.9533   6.0682   6.3694   6.6792   6.7826   6.9603
     7.0960   7.2488   7.4886   7.8536   7.9641   8.0847   8.1991   8.3262
     8.5821   8.8207   9.0613   9.1872   9.3214   9.3345   9.4766   9.5843
     9.7034   9.8283  10.1523  10.3578  10.9667  11.1969  12.1114  14.6157
    15.0503  15.4268  16.2162  16.9845  17.0638  17.1889  17.5472  17.9276

     occupation numbers 
     1.0000   1.0000   1.0000   1.0000   1.0000   1.0000   1.0000   1.0000
     1.0000   1.0000   1.0000   1.0000   1.0000   1.0000   1.0000   1.0000
     1.0000   1.0000   1.0000   1.0000   1.0000   1.0000   1.0000   1.0000
     1.0000   1.0000   1.0000   1.0000   1.0000   1.0000   1.0000   1.0000
     1.0000   1.0000   1.0000   1.0000   1.0000   1.0000   1.0000   1.0000
     1.0000   1.0000   1.0000   1.0000   1.0000   1.0000   1.0000   1.0000
     1.0000   1.0000   1.0000   1.0000   0.1029  -0.0798   0.0000   0.0000
     0.0000   0.0000   0.0000   0.0000   0.0000   0.0000   0.0000   0.0000

          k = 0.1875 0.3125 0.1029 (  8531 PWs)   bands (ev):

   -29.9662 -14.6095 -14.5770 -10.6785 -10.5388 -10.3448  -6.9728  -6.8801
    -6.4904  -6.4374  -6.2902  -5.9141  -5.8322  -0.1397  -0.1299   0.0696
     0.0913   0.5580   0.5758   4.1988   4.5263   4.8694   5.2024   5.2381
     5.4928   5.9076   5.9567   6.0480   6.4243   6.6866   6.7769   6.8826
     7.1103   7.2229   7.4645   7.9566   7.9712   8.0833   8.2032   8.2730
     8.6151   8.8289   9.0580   9.2209   9.3213   9.3414   9.4800   9.5752
     9.6609   9.8443  10.0980  10.3422  10.9769  11.1862  12.1549  14.6700
    14.9995  15.4206  16.2145  16.9240  16.9570  17.2179  17.4625  17.8666

     occupation numbers 
     1.0000   1.0000   1.0000   1.0000   1.0000   1.0000   1.0000   1.0000
     1.0000   1.0000   1.0000   1.0000   1.0000   1.0000   1.0000   1.0000
     1.0000   1.0000   1.0000   1.0000   1.0000   1.0000   1.0000   1.0000
     1.0000   1.0000   1.0000   1.0000   1.0000   1.0000   1.0000   1.0000
     1.0000   1.0000   1.0000   1.0000   1.0000   1.0000   1.0000   1.0000
     1.0000   1.0000   1.0000   1.0000   1.0000   1.0000   1.0000   1.0000
     1.0000   1.0000   1.0000   1.0000   0.0746  -0.0709   0.0000   0.0000
     0.0000   0.0000   0.0000   0.0000   0.0000   0.0000   0.0000   0.0000

          k = 0.1875 0.3125 0.1441 (  8524 PWs)   bands (ev):

   -29.9662 -14.6099 -14.5765 -10.6785 -10.5389 -10.3448  -6.9716  -6.8820
    -6.4845  -6.4376  -6.2960  -5.9125  -5.8330  -0.1360  -0.1312   0.0717
     0.0870   0.5560   0.5771   4.2105   4.5115   4.8718   5.2028   5.2373
     5.4951   5.9095   5.9571   6.0372   6.4720   6.6915   6.7761   6.8168
     7.1176   7.2064   7.4537   7.9651   8.0590   8.0930   8.1678   8.2378
     8.6378   8.8337   9.0554   9.2415   9.3182   9.3832   9.4684   9.5601
     9.6229   9.8553  10.0596  10.3337  10.9846  11.1787  12.1843  14.7241
    14.9472  15.4159  16.2181  16.8487  16.9242  17.2396  17.4199  17.8293

     occupation numbers 
     1.0000   1.0000   1.0000   1.0000   1.0000   1.0000   1.0000   1.0000
     1.0000   1.0000   1.0000   1.0000   1.0000   1.0000   1.0000   1.0000
     1.0000   1.0000   1.0000   1.0000   1.0000   1.0000   1.0000   1.0000
     1.0000   1.0000   1.0000   1.0000   1.0000   1.0000   1.0000   1.0000
     1.0000   1.0000   1.0000   1.0000   1.0000   1.0000   1.0000   1.0000
     1.0000   1.0000   1.0000   1.0000   1.0000   1.0000   1.0000   1.0000
     1.0000   1.0000   1.0000   1.0000   0.0499  -0.0594   0.0000   0.0000
     0.0000   0.0000   0.0000   0.0000   0.0000   0.0000   0.0000   0.0000

          k = 0.1875 0.4375 0.0206 (  8545 PWs)   bands (ev):

   -29.9607 -14.5612 -14.5323 -10.8619 -10.4332 -10.3325  -7.0582  -6.7183
    -6.4425  -6.3790  -6.1655  -6.0003  -5.9792  -0.0686  -0.0438   0.0410
     0.1014   0.3401   0.4052   3.8520   4.2570   4.3728   5.1868   5.3821
     5.4585   5.6622   5.6945   6.0055   6.2638   6.7296   6.7707   6.8804
     6.9586   7.1056   7.4455   7.8118   7.9451   8.0055   8.3430   8.4664
     8.6604   8.9203   9.1590   9.2000   9.2437   9.5526   9.6788   9.7161
     9.8429  10.0333  10.1075  10.3554  11.0610  11.3080  12.4405  14.6450
    15.0833  15.4852  16.7700  16.8065  17.4306  17.6906  17.8819  18.0836

     occupation numbers 
     1.0000   1.0000   1.0000   1.0000   1.0000   1.0000   1.0000   1.0000
     1.0000   1.0000   1.0000   1.0000   1.0000   1.0000   1.0000   1.0000
     1.0000   1.0000   1.0000   1.0000   1.0000   1.0000   1.0000   1.0000
     1.0000   1.0000   1.0000   1.0000   1.0000   1.0000   1.0000   1.0000
     1.0000   1.0000   1.0000   1.0000   1.0000   1.0000   1.0000   1.0000
     1.0000   1.0000   1.0000   1.0000   1.0000   1.0000   1.0000   1.0000
     1.0000   1.0000   1.0000   1.0000   0.0316  -0.0742   0.0000   0.0000
     0.0000   0.0000   0.0000   0.0000   0.0000   0.0000   0.0000   0.0000

          k = 0.1875 0.4375 0.0618 (  8540 PWs)   bands (ev):

   -29.9607 -14.5617 -14.5318 -10.8619 -10.4332 -10.3325  -7.0603  -6.7168
    -6.4255  -6.3802  -6.1925  -6.0126  -5.9552  -0.0666  -0.0443   0.0436
     0.0975   0.3363   0.4086   3.8633   4.2315   4.3857   5.1898   5.3569
     5.4821   5.6372   5.7279   5.9972   6.2904   6.7227   6.7758   6.8009
     7.0056   7.1015   7.4118   7.8743   7.9537   8.0041   8.3095   8.4639
     8.6858   8.9459   9.1716   9.2043   9.2401   9.5504   9.6776   9.7069
     9.8296   9.9749  10.1163  10.3529  11.0652  11.3004  12.4846  14.6618
    15.0622  15.5194  16.6535  16.7676  17.3669  17.6592  18.0654  18.1078

     occupation numbers 
     1.0000   1.0000   1.0000   1.0000   1.0000   1.0000   1.0000   1.0000
     1.0000   1.0000   1.0000   1.0000   1.0000   1.0000   1.0000   1.0000
     1.0000   1.0000   1.0000   1.0000   1.0000   1.0000   1.0000   1.0000
     1.0000   1.0000   1.0000   1.0000   1.0000   1.0000   1.0000   1.0000
     1.0000   1.0000   1.0000   1.0000   1.0000   1.0000   1.0000   1.0000
     1.0000   1.0000   1.0000   1.0000   1.0000   1.0000   1.0000   1.0000
     1.0000   1.0000   1.0000   1.0000   0.0257  -0.0708   0.0000   0.0000
     0.0000   0.0000   0.0000   0.0000   0.0000   0.0000   0.0000   0.0000

          k = 0.1875 0.4375 0.1029 (  8542 PWs)   bands (ev):

   -29.9607 -14.5623 -14.5312 -10.8619 -10.4333 -10.3325  -7.0631  -6.7146
    -6.3949  -6.3812  -6.2356  -6.0182  -5.9353  -0.0638  -0.0451   0.0481
     0.0910   0.3310   0.4132   3.8810   4.1984   4.3991   5.1946   5.3310
     5.5065   5.6176   5.7599   5.9834   6.3387   6.7062   6.7167   6.7857
     7.0395   7.0943   7.3743   7.9523   7.9778   8.0038   8.2487   8.4614
     8.7200   8.9903   9.1500   9.2150   9.2845   9.5474   9.6517   9.6959
     9.7898   9.9151  10.1268  10.3500  11.0712  11.2904  12.5448  14.6882
    15.0291  15.5803  16.4569  16.7581  17.2982  17.6979  18.0505  18.1653

     occupation numbers 
     1.0000   1.0000   1.0000   1.0000   1.0000   1.0000   1.0000   1.0000
     1.0000   1.0000   1.0000   1.0000   1.0000   1.0000   1.0000   1.0000
     1.0000   1.0000   1.0000   1.0000   1.0000   1.0000   1.0000   1.0000
     1.0000   1.0000   1.0000   1.0000   1.0000   1.0000   1.0000   1.0000
     1.0000   1.0000   1.0000   1.0000   1.0000   1.0000   1.0000   1.0000
     1.0000   1.0000   1.0000   1.0000   1.0000   1.0000   1.0000   1.0000
     1.0000   1.0000   1.0000   1.0000   0.0159  -0.0634   0.0000   0.0000
     0.0000   0.0000   0.0000   0.0000   0.0000   0.0000   0.0000   0.0000

          k = 0.1875 0.4375 0.1441 (  8535 PWs)   bands (ev):

   -29.9607 -14.5627 -14.5307 -10.8619 -10.4334 -10.3324  -7.0651  -6.7130
    -6.3841  -6.3561  -6.2801  -6.0202  -5.9242  -0.0618  -0.0458   0.0527
     0.0852   0.3274   0.4162   3.8954   4.1751   4.4066   5.1987   5.3150
     5.5222   5.6055   5.7809   5.9716   6.3887   6.6369   6.7077   6.7915
     7.0602   7.0858   7.3519   7.9751   7.9878   8.0761   8.1686   8.4601
     8.7435   9.0398   9.1089   9.2148   9.3798   9.5451   9.5623   9.6958
     9.7560   9.8945  10.1337  10.3483  11.0756  11.2838  12.5863  14.7098
    15.0025  15.6386  16.3151  16.7517  17.2573  17.7797  17.9339  18.1752

     occupation numbers 
     1.0000   1.0000   1.0000   1.0000   1.0000   1.0000   1.0000   1.0000
     1.0000   1.0000   1.0000   1.0000   1.0000   1.0000   1.0000   1.0000
     1.0000   1.0000   1.0000   1.0000   1.0000   1.0000   1.0000   1.0000
     1.0000   1.0000   1.0000   1.0000   1.0000   1.0000   1.0000   1.0000
     1.0000   1.0000   1.0000   1.0000   1.0000   1.0000   1.0000   1.0000
     1.0000   1.0000   1.0000   1.0000   1.0000   1.0000   1.0000   1.0000
     1.0000   1.0000   1.0000   1.0000   0.0078  -0.0563   0.0000   0.0000
     0.0000   0.0000   0.0000   0.0000   0.0000   0.0000   0.0000   0.0000

          k = 0.3125 0.3125 0.0206 (  8546 PWs)   bands (ev):

   -29.9585 -14.5469 -14.5219 -10.6661 -10.6233 -10.4113  -6.7907  -6.6653
    -6.6577  -6.5037  -6.1799  -5.8940  -5.7606  -0.4144  -0.3912  -0.0873
     0.0962   0.2269   0.2846   3.7084   4.2609   4.9162   5.0207   5.0444
     5.4151   5.4602   5.7520   6.1943   6.3387   6.6105   6.8348   7.0145
     7.0931   7.1551   7.3029   7.8898   8.2229   8.3553   8.6455   8.6763
     8.7161   9.0295   9.2316   9.2738   9.2930   9.3514   9.6760   9.7188
     9.8114   9.8696  10.2306  10.4401  11.6681  11.8154  12.0252  14.0482
    14.7897  15.6481  16.7621  17.0593  17.3218  17.3848  17.8305  17.9786

     occupation numbers 
     1.0000   1.0000   1.0000   1.0000   1.0000   1.0000   1.0000   1.0000
     1.0000   1.0000   1.0000   1.0000   1.0000   1.0000   1.0000   1.0000
     1.0000   1.0000   1.0000   1.0000   1.0000   1.0000   1.0000   1.0000
     1.0000   1.0000   1.0000   1.0000   1.0000   1.0000   1.0000   1.0000
     1.0000   1.0000   1.0000   1.0000   1.0000   1.0000   1.0000   1.0000
     1.0000   1.0000   1.0000   1.0000   1.0000   1.0000   1.0000   1.0000
     1.0000   1.0000   1.0000   1.0000  -0.0152   0.0000   0.0000   0.0000
     0.0000   0.0000   0.0000   0.0000   0.0000   0.0000   0.0000   0.0000

          k = 0.3125 0.3125 0.0618 (  8537 PWs)   bands (ev):

   -29.9585 -14.5474 -14.5214 -10.6660 -10.6233 -10.4114  -6.7944  -6.6620
    -6.6550  -6.5053  -6.1800  -5.8938  -5.7613  -0.4159  -0.3893  -0.0860
     0.0908   0.2250   0.2902   3.7139   4.2518   4.9172   5.0207   5.0444
     5.4161   5.4619   5.7429   6.2086   6.3391   6.6198   6.8302   6.9575
     7.1345   7.1442   7.2860   7.9647   8.2263   8.3587   8.6109   8.6749
     8.7326   9.0347   9.2008   9.2809   9.2923   9.3776   9.6422   9.7426
     9.8115   9.8594  10.1787  10.4362  11.6705  11.8140  12.0716  14.0729
    14.7733  15.6417  16.7017  17.0216  17.3122  17.4400  17.7592  17.9843

     occupation numbers 
     1.0000   1.0000   1.0000   1.0000   1.0000   1.0000   1.0000   1.0000
     1.0000   1.0000   1.0000   1.0000   1.0000   1.0000   1.0000   1.0000
     1.0000   1.0000   1.0000   1.0000   1.0000   1.0000   1.0000   1.0000
     1.0000   1.0000   1.0000   1.0000   1.0000   1.0000   1.0000   1.0000
     1.0000   1.0000   1.0000   1.0000   1.0000   1.0000   1.0000   1.0000
     1.0000   1.0000   1.0000   1.0000   1.0000   1.0000   1.0000   1.0000
     1.0000   1.0000   1.0000   1.0000  -0.0125   0.0000   0.0000   0.0000
     0.0000   0.0000   0.0000   0.0000   0.0000   0.0000   0.0000   0.0000

          k = 0.3125 0.3125 0.1029 (  8535 PWs)   bands (ev):

   -29.9585 -14.5480 -14.5208 -10.6660 -10.6233 -10.4114  -6.7992  -6.6610
    -6.6479  -6.5079  -6.1802  -5.8935  -5.7622  -0.4178  -0.3868  -0.0840
     0.0833   0.2226   0.2975   3.7219   4.2388   4.9186   5.0207   5.0444
     5.4173   5.4642   5.7314   6.2219   6.3491   6.6315   6.8225   6.9003
     7.1270   7.1756   7.2637   8.0799   8.2305   8.3644   8.5411   8.6730
     8.7632   9.0424   9.1766   9.2793   9.2933   9.4092   9.6014   9.7644
     9.8112   9.8407  10.1096  10.4322  11.6741  11.8120  12.1340  14.1109
    14.7472  15.6288  16.6519  16.9546  17.3085  17.4764  17.6953  18.0115

     occupation numbers 
     1.0000   1.0000   1.0000   1.0000   1.0000   1.0000   1.0000   1.0000
     1.0000   1.0000   1.0000   1.0000   1.0000   1.0000   1.0000   1.0000
     1.0000   1.0000   1.0000   1.0000   1.0000   1.0000   1.0000   1.0000
     1.0000   1.0000   1.0000   1.0000   1.0000   1.0000   1.0000   1.0000
     1.0000   1.0000   1.0000   1.0000   1.0000   1.0000   1.0000   1.0000
     1.0000   1.0000   1.0000   1.0000   1.0000   1.0000   1.0000   1.0000
     1.0000   1.0000   1.0000   1.0000  -0.0082   0.0000   0.0000   0.0000
     0.0000   0.0000   0.0000   0.0000   0.0000   0.0000   0.0000   0.0000

          k = 0.3125 0.3125 0.1441 (  8551 PWs)   bands (ev):

   -29.9585 -14.5484 -14.5204 -10.6660 -10.6233 -10.4115  -6.8024  -6.6609
    -6.6422  -6.5098  -6.1804  -5.8933  -5.7628  -0.4190  -0.3851  -0.0826
     0.0782   0.2211   0.3023   3.7278   4.2293   4.9196   5.0206   5.0444
     5.4179   5.4658   5.7243   6.2259   6.3640   6.6387   6.8124   6.8678
     7.1164   7.2083   7.2403   8.1877   8.2298   8.3702   8.4632   8.6715
     8.7874   9.0479   9.1659   9.2790   9.2931   9.4314   9.5670   9.7828
     9.8063   9.8237  10.0653  10.4299  11.6766  11.8105  12.1763  14.1404
    14.7260  15.6169  16.6403  16.8933  17.3078  17.4872  17.6621  18.0347

     occupation numbers 
     1.0000   1.0000   1.0000   1.0000   1.0000   1.0000   1.0000   1.0000
     1.0000   1.0000   1.0000   1.0000   1.0000   1.0000   1.0000   1.0000
     1.0000   1.0000   1.0000   1.0000   1.0000   1.0000   1.0000   1.0000
     1.0000   1.0000   1.0000   1.0000   1.0000   1.0000   1.0000   1.0000
     1.0000   1.0000   1.0000   1.0000   1.0000   1.0000   1.0000   1.0000
     1.0000   1.0000   1.0000   1.0000   1.0000   1.0000   1.0000   1.0000
     1.0000   1.0000   1.0000   1.0000  -0.0048   0.0000   0.0000   0.0000
     0.0000   0.0000   0.0000   0.0000   0.0000   0.0000   0.0000   0.0000

          k = 0.3125 0.4375 0.0206 (  8565 PWs)   bands (ev):

   -29.9531 -14.5057 -14.4812 -10.8334 -10.6201 -10.3106  -6.9283  -6.6206
    -6.3974  -6.2647  -6.1447  -5.9455  -5.8787  -0.4575  -0.4429  -0.2178
    -0.1734   0.0636   0.1577   3.3638   3.9526   4.4126   4.9543   5.0173
     5.1199   5.4393   5.6355   6.2360   6.3645   6.6162   6.7868   6.8647
     6.9473   7.0675   7.3041   7.9472   8.2680   8.5098   8.8543   8.9182
     9.0394   9.1163   9.3414   9.3880   9.4185   9.6205   9.6790   9.9043
    10.0579  10.0831  10.1789  10.4147  11.9919  12.1160  12.2954  13.7560
    14.6691  15.8048  16.5478  17.2554  17.4638  17.5585  17.8910  18.0998

     occupation numbers 
     1.0000   1.0000   1.0000   1.0000   1.0000   1.0000   1.0000   1.0000
     1.0000   1.0000   1.0000   1.0000   1.0000   1.0000   1.0000   1.0000
     1.0000   1.0000   1.0000   1.0000   1.0000   1.0000   1.0000   1.0000
     1.0000   1.0000   1.0000   1.0000   1.0000   1.0000   1.0000   1.0000
     1.0000   1.0000   1.0000   1.0000   1.0000   1.0000   1.0000   1.0000
     1.0000   1.0000   1.0000   1.0000   1.0000   1.0000   1.0000   1.0000
     1.0000   1.0000   1.0000   1.0000   0.0000   0.0000   0.0000   0.0000
     0.0000   0.0000   0.0000   0.0000   0.0000   0.0000   0.0000   0.0000

          k = 0.3125 0.4375 0.0618 (  8559 PWs)   bands (ev):

   -29.9531 -14.5061 -14.4808 -10.8334 -10.6201 -10.3106  -6.9294  -6.6209
    -6.3911  -6.2612  -6.1537  -5.9559  -5.8676  -0.4581  -0.4429  -0.2214
    -0.1712   0.0704   0.1524   3.3714   3.9394   4.4154   4.9544   5.0163
     5.1212   5.4421   5.6278   6.2602   6.3645   6.6194   6.7842   6.7994
     6.9925   7.0519   7.2962   8.0213   8.2700   8.5153   8.7987   8.9566
     9.0344   9.1227   9.3255   9.3950   9.4332   9.5833   9.7059   9.8459
    10.0492  10.0870  10.1651  10.4128  11.9949  12.1134  12.3652  13.7653
    14.6317  15.8395  16.5699  17.1488  17.4170  17.5323  17.8659  18.0929

     occupation numbers 
     1.0000   1.0000   1.0000   1.0000   1.0000   1.0000   1.0000   1.0000
     1.0000   1.0000   1.0000   1.0000   1.0000   1.0000   1.0000   1.0000
     1.0000   1.0000   1.0000   1.0000   1.0000   1.0000   1.0000   1.0000
     1.0000   1.0000   1.0000   1.0000   1.0000   1.0000   1.0000   1.0000
     1.0000   1.0000   1.0000   1.0000   1.0000   1.0000   1.0000   1.0000
     1.0000   1.0000   1.0000   1.0000   1.0000   1.0000   1.0000   1.0000
     1.0000   1.0000   1.0000   1.0000   0.0000   0.0000   0.0000   0.0000
     0.0000   0.0000   0.0000   0.0000   0.0000   0.0000   0.0000   0.0000

          k = 0.3125 0.4375 0.1029 (  8548 PWs)   bands (ev):

   -29.9531 -14.5066 -14.4802 -10.8334 -10.6201 -10.3107  -6.9310  -6.6213
    -6.3820  -6.2543  -6.1689  -5.9667  -5.8557  -0.4589  -0.4428  -0.2259
    -0.1683   0.0812   0.1437   3.3825   3.9204   4.4193   4.9547   5.0150
     5.1226   5.4461   5.6187   6.2847   6.3792   6.6235   6.7302   6.7811
     7.0229   7.0353   7.2875   8.1347   8.2764   8.5234   8.7151   9.0096
     9.0291   9.1325   9.3084   9.4045   9.4482   9.5430   9.6818   9.7988
    10.0397  10.0913  10.1503  10.4101  11.9986  12.1104  12.4622  13.7793
    14.5757  15.8964  16.6056  16.9709  17.4127  17.5051  17.8148  18.0217

     occupation numbers 
     1.0000   1.0000   1.0000   1.0000   1.0000   1.0000   1.0000   1.0000
     1.0000   1.0000   1.0000   1.0000   1.0000   1.0000   1.0000   1.0000
     1.0000   1.0000   1.0000   1.0000   1.0000   1.0000   1.0000   1.0000
     1.0000   1.0000   1.0000   1.0000   1.0000   1.0000   1.0000   1.0000
     1.0000   1.0000   1.0000   1.0000   1.0000   1.0000   1.0000   1.0000
     1.0000   1.0000   1.0000   1.0000   1.0000   1.0000   1.0000   1.0000
     1.0000   1.0000   1.0000   1.0000   0.0000   0.0000   0.0000   0.0000
     0.0000   0.0000   0.0000   0.0000   0.0000   0.0000   0.0000   0.0000

          k = 0.3125 0.4375 0.1441 (  8554 PWs)   bands (ev):

   -29.9531 -14.5070 -14.4799 -10.8334 -10.6201 -10.3107  -6.9321  -6.6215
    -6.3754  -6.2465  -6.1829  -5.9726  -5.8487  -0.4594  -0.4428  -0.2289
    -0.1664   0.0903   0.1358   3.3908   3.9067   4.4218   4.9549   5.0141
     5.1233   5.4489   5.6135   6.2913   6.4075   6.6262   6.6795   6.7795
     7.0149   7.0476   7.2824   8.2180   8.2999   8.5295   8.6342   9.0224
     9.0606   9.1398   9.2974   9.4229   9.4563   9.4891   9.6292   9.8023
    10.0334  10.0942  10.1414  10.4083  12.0011  12.1085  12.5302  13.7899
    14.5335  15.9447  16.6356  16.8451  17.4153  17.4852  17.7690  17.9806

     occupation numbers 
     1.0000   1.0000   1.0000   1.0000   1.0000   1.0000   1.0000   1.0000
     1.0000   1.0000   1.0000   1.0000   1.0000   1.0000   1.0000   1.0000
     1.0000   1.0000   1.0000   1.0000   1.0000   1.0000   1.0000   1.0000
     1.0000   1.0000   1.0000   1.0000   1.0000   1.0000   1.0000   1.0000
     1.0000   1.0000   1.0000   1.0000   1.0000   1.0000   1.0000   1.0000
     1.0000   1.0000   1.0000   1.0000   1.0000   1.0000   1.0000   1.0000
     1.0000   1.0000   1.0000   1.0000   0.0000   0.0000   0.0000   0.0000
     0.0000   0.0000   0.0000   0.0000   0.0000   0.0000   0.0000   0.0000

          k = 0.4375 0.4375 0.0206 (  8563 PWs)   bands (ev):

   -29.9477 -14.4656 -14.4443 -10.8135 -10.7985 -10.2151  -6.8318  -6.7988
    -6.2626  -6.1215  -6.0668  -5.9149  -5.7993  -0.6857  -0.6846  -0.5900
    -0.2932  -0.1966   0.1721   3.0035   3.6440   4.4460   4.8007   4.8657
     4.9102   5.4472   5.6331   6.2768   6.4439   6.5220   6.7811   6.8795
     6.9022   6.9373   7.3812   7.9984   8.5606   8.8656   9.1254   9.1606
     9.2739   9.2983   9.4511   9.5048   9.5742   9.6139   9.7830   9.9384
    10.0625  10.1459  10.4135  10.5563  12.1748  12.5062  12.5911  13.1946
    14.4724  16.1371  16.4112  17.0330  17.2047  17.3967  17.8242  18.0456

     occupation numbers 
     1.0000   1.0000   1.0000   1.0000   1.0000   1.0000   1.0000   1.0000
     1.0000   1.0000   1.0000   1.0000   1.0000   1.0000   1.0000   1.0000
     1.0000   1.0000   1.0000   1.0000   1.0000   1.0000   1.0000   1.0000
     1.0000   1.0000   1.0000   1.0000   1.0000   1.0000   1.0000   1.0000
     1.0000   1.0000   1.0000   1.0000   1.0000   1.0000   1.0000   1.0000
     1.0000   1.0000   1.0000   1.0000   1.0000   1.0000   1.0000   1.0000
     1.0000   1.0000   1.0000   1.0000   0.0000   0.0000   0.0000   0.0000
     0.0000   0.0000   0.0000   0.0000   0.0000   0.0000   0.0000   0.0000

          k = 0.4375 0.4375 0.0618 (  8565 PWs)   bands (ev):

   -29.9477 -14.4659 -14.4440 -10.8135 -10.7985 -10.2151  -6.8321  -6.7996
    -6.2542  -6.1263  -6.0703  -5.9165  -5.7968  -0.6860  -0.6838  -0.5902
    -0.2922  -0.1865   0.1582   3.0097   3.6343   4.4470   4.8251   4.8657
     4.9103   5.4490   5.6040   6.2477   6.4562   6.5609   6.7811   6.8521
     6.9008   6.9292   7.3795   8.0881   8.5578   8.8730   9.1401   9.1633
     9.2227   9.3088   9.4381   9.4795   9.5518   9.6108   9.7391   9.9521
    10.0690  10.1372  10.4121  10.5553  12.2639  12.5070  12.5904  13.2021
    14.4208  16.1429  16.4582  16.9106  17.3533  17.4385  17.7643  17.8169

     occupation numbers 
     1.0000   1.0000   1.0000   1.0000   1.0000   1.0000   1.0000   1.0000
     1.0000   1.0000   1.0000   1.0000   1.0000   1.0000   1.0000   1.0000
     1.0000   1.0000   1.0000   1.0000   1.0000   1.0000   1.0000   1.0000
[...]
     1.0000   1.0000   1.0000   1.0000   1.0000   1.0000   1.0000   1.0000
     1.0000   1.0000   1.0000   1.0000   1.0000   1.0000   1.0000   1.0000
     1.0000   1.0000   1.0000   1.0000   1.0000   1.0000   1.0000   1.0000
     1.0000   1.0000   1.0000   1.0000   1.0000   1.0000   1.0000   1.0000
     1.0000   1.0000   1.0000   1.0000   1.0149   0.8813   0.0000   0.0000
     0.0000   0.0000   0.0000   0.0000   0.0000   0.0000   0.0000   0.0000

          k = 0.4375 0.0625-0.1441 (  8535 PWs)   bands (ev):

   -29.9661 -14.5908 -14.5658 -10.8681 -10.5169 -10.0974  -7.1974  -7.0196
    -6.8957  -6.4340  -6.2365  -5.9795  -5.5838  -0.2488   0.1089   0.3988
     0.4843   0.5963   0.6148   4.1771   4.3462   5.4487   5.6271   5.7114
     5.7647   6.1843   6.2858   6.3383   6.4106   6.6099   6.7344   6.7968
     7.0373   7.3748   7.4749   7.6781   7.9793   8.0395   8.2055   8.2616
     8.3502   8.7032   8.8314   8.9343   9.1085   9.1122   9.5071   9.5125
     9.6259   9.6617   9.7574  10.0339  10.1261  10.3430  10.8400  14.8260
    15.3904  15.6041  16.7724  17.0740  17.3060  17.4825  17.7049  17.9825

     occupation numbers 
     1.0000   1.0000   1.0000   1.0000   1.0000   1.0000   1.0000   1.0000
     1.0000   1.0000   1.0000   1.0000   1.0000   1.0000   1.0000   1.0000
     1.0000   1.0000   1.0000   1.0000   1.0000   1.0000   1.0000   1.0000
     1.0000   1.0000   1.0000   1.0000   1.0000   1.0000   1.0000   1.0000
     1.0000   1.0000   1.0000   1.0000   1.0000   1.0000   1.0000   1.0000
     1.0000   1.0000   1.0000   1.0000   1.0000   1.0000   1.0000   1.0000
     1.0000   1.0000   1.0000   1.0000   1.0120   0.9075   0.0000   0.0000
     0.0000   0.0000   0.0000   0.0000   0.0000   0.0000   0.0000   0.0000

          k = 0.3125 0.1875-0.0206 (  8540 PWs)   bands (ev):

   -29.9662 -14.6039 -14.5782 -10.6665 -10.5402 -10.3535  -6.9870  -6.8558
    -6.7652  -6.4570  -6.2669  -5.9205  -5.6354  -0.2531  -0.1032   0.0475
     0.1035   0.5529   0.5647   4.1876   4.5471   5.2069   5.2512   5.4756
     5.7202   5.9383   6.0260   6.0534   6.3662   6.7010   6.7059   7.1284
     7.3219   7.3505   7.5209   7.8067   8.0384   8.1883   8.1989   8.3556
     8.5125   8.7486   8.9756   9.0557   9.2464   9.2652   9.3972   9.4593
     9.6339   9.6485  10.1766  10.3066  10.9513  11.1904  11.3591  14.4230
    15.0354  15.3845  16.4755  16.9311  16.9937  17.3635  17.7072  17.8228

     occupation numbers 
     1.0000   1.0000   1.0000   1.0000   1.0000   1.0000   1.0000   1.0000
     1.0000   1.0000   1.0000   1.0000   1.0000   1.0000   1.0000   1.0000
     1.0000   1.0000   1.0000   1.0000   1.0000   1.0000   1.0000   1.0000
     1.0000   1.0000   1.0000   1.0000   1.0000   1.0000   1.0000   1.0000
     1.0000   1.0000   1.0000   1.0000   1.0000   1.0000   1.0000   1.0000
     1.0000   1.0000   1.0000   1.0000   1.0000   1.0000   1.0000   1.0000
     1.0000   1.0000   1.0000   1.0000   0.1537  -0.0620  -0.0602   0.0000
     0.0000   0.0000   0.0000   0.0000   0.0000   0.0000   0.0000   0.0000

          k = 0.3125 0.1875-0.0618 (  8536 PWs)   bands (ev):

   -29.9662 -14.6044 -14.5776 -10.6665 -10.5402 -10.3535  -6.9857  -6.8704
    -6.7469  -6.4573  -6.2741  -5.9185  -5.6350  -0.2524  -0.1050   0.0511
     0.1010   0.5479   0.5696   4.1914   4.5431   5.2082   5.2473   5.4749
     5.7284   5.9297   6.0110   6.0603   6.3819   6.7069   6.7207   7.0979
     7.2810   7.3463   7.5127   7.8873   8.0486   8.1903   8.1987   8.3339
     8.5313   8.7655   8.9574   9.0506   9.2441   9.2727   9.3818   9.4464
     9.6286   9.6810  10.1725  10.2490  10.9587  11.1742  11.3976  14.4423
    15.0106  15.3930  16.5357  16.8925  17.0196  17.2982  17.6550  17.7829

     occupation numbers 
     1.0000   1.0000   1.0000   1.0000   1.0000   1.0000   1.0000   1.0000
     1.0000   1.0000   1.0000   1.0000   1.0000   1.0000   1.0000   1.0000
     1.0000   1.0000   1.0000   1.0000   1.0000   1.0000   1.0000   1.0000
     1.0000   1.0000   1.0000   1.0000   1.0000   1.0000   1.0000   1.0000
     1.0000   1.0000   1.0000   1.0000   1.0000   1.0000   1.0000   1.0000
     1.0000   1.0000   1.0000   1.0000   1.0000   1.0000   1.0000   1.0000
     1.0000   1.0000   1.0000   1.0000   0.1433  -0.0458  -0.0413   0.0000
     0.0000   0.0000   0.0000   0.0000   0.0000   0.0000   0.0000   0.0000

          k = 0.3125 0.1875-0.1029 (  8531 PWs)   bands (ev):

   -29.9662 -14.6052 -14.5769 -10.6665 -10.5403 -10.3535  -6.9836  -6.8861
    -6.7257  -6.4576  -6.2845  -5.9158  -5.6345  -0.2515  -0.1074   0.0568
     0.0968   0.5431   0.5742   4.1968   4.5374   5.2106   5.2415   5.4736
     5.7412   5.9161   6.0013   6.0584   6.4051   6.7153   6.7532   7.0304
     7.2455   7.3389   7.5135   7.9898   8.0658   8.1867   8.1988   8.2997
     8.5556   8.7940   8.9306   9.0439   9.2327   9.2876   9.3557   9.4369
     9.6250   9.7267  10.1472  10.1813  10.9693  11.1579  11.4424  14.4725
    14.9728  15.4054  16.6516  16.8590  17.0222  17.1960  17.5375  17.7476

     occupation numbers 
     1.0000   1.0000   1.0000   1.0000   1.0000   1.0000   1.0000   1.0000
     1.0000   1.0000   1.0000   1.0000   1.0000   1.0000   1.0000   1.0000
     1.0000   1.0000   1.0000   1.0000   1.0000   1.0000   1.0000   1.0000
     1.0000   1.0000   1.0000   1.0000   1.0000   1.0000   1.0000   1.0000
     1.0000   1.0000   1.0000   1.0000   1.0000   1.0000   1.0000   1.0000
     1.0000   1.0000   1.0000   1.0000   1.0000   1.0000   1.0000   1.0000
     1.0000   1.0000   1.0000   1.0000   0.1262  -0.0237  -0.0269   0.0000
     0.0000   0.0000   0.0000   0.0000   0.0000   0.0000   0.0000   0.0000

          k = 0.3125 0.1875-0.1441 (  8524 PWs)   bands (ev):

   -29.9662 -14.6056 -14.5764 -10.6664 -10.5404 -10.3535  -6.9819  -6.8955
    -6.7124  -6.4578  -6.2920  -5.9140  -5.6341  -0.2509  -0.1091   0.0615
     0.0932   0.5404   0.5768   4.2007   4.5332   5.2130   5.2368   5.4725
     5.7516   5.9050   5.9983   6.0532   6.4218   6.7199   6.8003   6.9538
     7.2310   7.3339   7.5168   8.0597   8.1018   8.1605   8.1997   8.2707
     8.5719   8.8187   8.9101   9.0396   9.2180   9.3072   9.3299   9.4335
     9.6229   9.7680  10.0809  10.1718  10.9769  11.1484  11.4702  14.4966
    14.9432  15.4144  16.8078  16.8428  16.9705  17.0816  17.4706  17.7351

     occupation numbers 
     1.0000   1.0000   1.0000   1.0000   1.0000   1.0000   1.0000   1.0000
     1.0000   1.0000   1.0000   1.0000   1.0000   1.0000   1.0000   1.0000
     1.0000   1.0000   1.0000   1.0000   1.0000   1.0000   1.0000   1.0000
     1.0000   1.0000   1.0000   1.0000   1.0000   1.0000   1.0000   1.0000
     1.0000   1.0000   1.0000   1.0000   1.0000   1.0000   1.0000   1.0000
     1.0000   1.0000   1.0000   1.0000   1.0000   1.0000   1.0000   1.0000
     1.0000   1.0000   1.0000   1.0000   0.1122  -0.0084  -0.0231   0.0000
     0.0000   0.0000   0.0000   0.0000   0.0000   0.0000   0.0000   0.0000

          k = 0.4375 0.1875-0.0206 (  8545 PWs)   bands (ev):

   -29.9608 -14.5536 -14.5321 -10.8480 -10.4362 -10.3412  -7.0349  -6.8759
    -6.7261  -6.4022  -6.2339  -5.9892  -5.6028  -0.2695  -0.0075   0.0896
     0.1372   0.2937   0.3291   3.8750   4.2462   5.1995   5.3943   5.4812
     5.6243   5.7621   5.7673   5.9966   6.2642   6.7467   6.8222   6.9964
     7.2492   7.3230   7.4301   7.8818   7.9676   8.3397   8.3683   8.4728
     8.4930   8.6960   9.1002   9.1715   9.2085   9.3415   9.4966   9.5588
     9.7001   9.7586   9.9594  10.2373  11.0599  11.2922  11.3722  14.2966
    14.9892  15.7316  16.9269  17.1827  17.4465  17.7819  17.8552  18.0101

     occupation numbers 
     1.0000   1.0000   1.0000   1.0000   1.0000   1.0000   1.0000   1.0000
     1.0000   1.0000   1.0000   1.0000   1.0000   1.0000   1.0000   1.0000
     1.0000   1.0000   1.0000   1.0000   1.0000   1.0000   1.0000   1.0000
     1.0000   1.0000   1.0000   1.0000   1.0000   1.0000   1.0000   1.0000
     1.0000   1.0000   1.0000   1.0000   1.0000   1.0000   1.0000   1.0000
     1.0000   1.0000   1.0000   1.0000   1.0000   1.0000   1.0000   1.0000
     1.0000   1.0000   1.0000   1.0000   0.0995  -0.0661  -0.0502   0.0000
     0.0000   0.0000   0.0000   0.0000   0.0000   0.0000   0.0000   0.0000

          k = 0.4375 0.1875-0.0618 (  8540 PWs)   bands (ev):

   -29.9608 -14.5541 -14.5317 -10.8480 -10.4362 -10.3412  -7.0524  -6.8456
    -6.7268  -6.4024  -6.2651  -5.9672  -5.6053  -0.2659  -0.0080   0.0921
     0.1320   0.2905   0.3308   3.8778   4.2429   5.2024   5.3710   5.5004
     5.6331   5.7517   5.7692   6.0127   6.2601   6.7533   6.8175   6.9815
     7.2226   7.3192   7.4272   7.9340   7.9767   8.3099   8.3764   8.4666
     8.5098   8.7303   9.0849   9.1380   9.2478   9.3015   9.5312   9.5569
     9.7024   9.7579   9.9519  10.1772  11.0642  11.2564  11.4352  14.3106
    14.9933  15.7045  16.9694  17.1963  17.4267  17.7197  17.8711  17.9915

     occupation numbers 
     1.0000   1.0000   1.0000   1.0000   1.0000   1.0000   1.0000   1.0000
     1.0000   1.0000   1.0000   1.0000   1.0000   1.0000   1.0000   1.0000
     1.0000   1.0000   1.0000   1.0000   1.0000   1.0000   1.0000   1.0000
     1.0000   1.0000   1.0000   1.0000   1.0000   1.0000   1.0000   1.0000
     1.0000   1.0000   1.0000   1.0000   1.0000   1.0000   1.0000   1.0000
     1.0000   1.0000   1.0000   1.0000   1.0000   1.0000   1.0000   1.0000
     1.0000   1.0000   1.0000   1.0000   0.0946  -0.0495  -0.0104   0.0000
     0.0000   0.0000   0.0000   0.0000   0.0000   0.0000   0.0000   0.0000

          k = 0.4375 0.1875-0.1029 (  8542 PWs)   bands (ev):

   -29.9608 -14.5547 -14.5310 -10.8480 -10.4363 -10.3412  -7.0712  -6.8057
    -6.7291  -6.4027  -6.3057  -5.9411  -5.6092  -0.2607  -0.0087   0.0962
     0.1242   0.2862   0.3328   3.8819   4.2381   5.2071   5.3463   5.5179
     5.6481   5.7382   5.7703   6.0335   6.2559   6.7663   6.8106   6.9545
     7.1879   7.3149   7.4271   7.9884   8.0131   8.2612   8.3846   8.4609
     8.5313   8.7876   9.0624   9.1079   9.2493   9.2838   9.5423   9.5891
     9.7065   9.7584   9.9309  10.0947  11.0705  11.2323  11.4947  14.3312
    14.9985  15.6662  17.0611  17.2227  17.3858  17.6178  17.8343  17.9046

     occupation numbers 
     1.0000   1.0000   1.0000   1.0000   1.0000   1.0000   1.0000   1.0000
     1.0000   1.0000   1.0000   1.0000   1.0000   1.0000   1.0000   1.0000
     1.0000   1.0000   1.0000   1.0000   1.0000   1.0000   1.0000   1.0000
     1.0000   1.0000   1.0000   1.0000   1.0000   1.0000   1.0000   1.0000
     1.0000   1.0000   1.0000   1.0000   1.0000   1.0000   1.0000   1.0000
     1.0000   1.0000   1.0000   1.0000   1.0000   1.0000   1.0000   1.0000
     1.0000   1.0000   1.0000   1.0000   0.0869  -0.0290   0.0000   0.0000
     0.0000   0.0000   0.0000   0.0000   0.0000   0.0000   0.0000   0.0000

          k = 0.4375 0.1875-0.1441 (  8535 PWs)   bands (ev):

   -29.9607 -14.5551 -14.5306 -10.8480 -10.4363 -10.3412  -7.0822  -6.7754
    -6.7335  -6.4029  -6.3337  -5.9248  -5.6121  -0.2569  -0.0091   0.0999
     0.1178   0.2832   0.3342   3.8849   4.2347   5.2110   5.3310   5.5270
     5.6616   5.7271   5.7710   6.0468   6.2544   6.7806   6.8051   6.9288
     7.1662   7.3124   7.4285   7.9962   8.0896   8.2043   8.3892   8.4578
     8.5471   8.8400   9.0387   9.0902   9.2127   9.3046   9.5373   9.6302
     9.7114   9.7639   9.8924  10.0447  11.0751  11.2204  11.5295  14.3464
    15.0017  15.6393  17.1865  17.2561  17.3462  17.4558  17.7633  17.9278

     occupation numbers 
     1.0000   1.0000   1.0000   1.0000   1.0000   1.0000   1.0000   1.0000
     1.0000   1.0000   1.0000   1.0000   1.0000   1.0000   1.0000   1.0000
     1.0000   1.0000   1.0000   1.0000   1.0000   1.0000   1.0000   1.0000
     1.0000   1.0000   1.0000   1.0000   1.0000   1.0000   1.0000   1.0000
     1.0000   1.0000   1.0000   1.0000   1.0000   1.0000   1.0000   1.0000
     1.0000   1.0000   1.0000   1.0000   1.0000   1.0000   1.0000   1.0000
     1.0000   1.0000   1.0000   1.0000   0.0810  -0.0157   0.0000   0.0000
     0.0000   0.0000   0.0000   0.0000   0.0000   0.0000   0.0000   0.0000

          k = 0.4375 0.3125-0.0206 (  8565 PWs)   bands (ev):

   -29.9531 -14.5025 -14.4811 -10.8196 -10.6321 -10.3120  -6.9021  -6.6464
    -6.5971  -6.3685  -6.1266  -5.8808  -5.7056  -0.4528  -0.4356  -0.2148
    -0.1997  -0.0258   0.1637   3.3709   3.9477   4.9533   4.9593   5.0218
     5.0809   5.4525   5.6686   6.2548   6.2664   6.6575   6.8527   7.0116
     7.0490   7.0709   7.2995   7.9629   8.4795   8.5097   8.8583   8.8878
     9.0169   9.0429   9.2753   9.3322   9.4199   9.6128   9.7001   9.7370
     9.7656  10.0765  10.1563  10.3334  11.9805  11.9991  12.1164  13.6257
    14.5898  15.9994  17.0023  17.1347  17.2800  17.4737  17.8783  18.0408

     occupation numbers 
     1.0000   1.0000   1.0000   1.0000   1.0000   1.0000   1.0000   1.0000
     1.0000   1.0000   1.0000   1.0000   1.0000   1.0000   1.0000   1.0000
     1.0000   1.0000   1.0000   1.0000   1.0000   1.0000   1.0000   1.0000
     1.0000   1.0000   1.0000   1.0000   1.0000   1.0000   1.0000   1.0000
     1.0000   1.0000   1.0000   1.0000   1.0000   1.0000   1.0000   1.0000
     1.0000   1.0000   1.0000   1.0000   1.0000   1.0000   1.0000   1.0000
     1.0000   1.0000   1.0000   1.0000   0.0000   0.0000   0.0000   0.0000
     0.0000   0.0000   0.0000   0.0000   0.0000   0.0000   0.0000   0.0000

          k = 0.4375 0.3125-0.0618 (  8559 PWs)   bands (ev):

   -29.9531 -14.5028 -14.4807 -10.8196 -10.6321 -10.3120  -6.9075  -6.6466
    -6.5814  -6.3721  -6.1420  -5.8705  -5.7070  -0.4537  -0.4318  -0.2180
    -0.1953  -0.0244   0.1568   3.3757   3.9406   4.9537   4.9592   5.0210
     5.0995   5.4553   5.6441   6.2427   6.2851   6.6670   6.8383   6.9877
     7.0370   7.0915   7.2957   8.0361   8.4827   8.5072   8.8289   8.9087
     9.0303   9.0464   9.2464   9.3237   9.4215   9.5679   9.7073   9.7459
     9.7868  10.0668  10.1092  10.3312  11.9998  12.0306  12.1227  13.6446
    14.5753  15.9760  16.9378  17.0886  17.2586  17.5213  17.8161  18.1105

     occupation numbers 
     1.0000   1.0000   1.0000   1.0000   1.0000   1.0000   1.0000   1.0000
     1.0000   1.0000   1.0000   1.0000   1.0000   1.0000   1.0000   1.0000
     1.0000   1.0000   1.0000   1.0000   1.0000   1.0000   1.0000   1.0000
     1.0000   1.0000   1.0000   1.0000   1.0000   1.0000   1.0000   1.0000
     1.0000   1.0000   1.0000   1.0000   1.0000   1.0000   1.0000   1.0000
     1.0000   1.0000   1.0000   1.0000   1.0000   1.0000   1.0000   1.0000
     1.0000   1.0000   1.0000   1.0000   0.0000   0.0000   0.0000   0.0000
     0.0000   0.0000   0.0000   0.0000   0.0000   0.0000   0.0000   0.0000

          k = 0.4375 0.3125-0.1029 (  8548 PWs)   bands (ev):

   -29.9531 -14.5034 -14.4802 -10.8196 -10.6321 -10.3121  -6.9146  -6.6468
    -6.5578  -6.3790  -6.1625  -5.8572  -5.7092  -0.4545  -0.4268  -0.2216
    -0.1900  -0.0222   0.1466   3.3827   3.9303   4.9542   4.9591   5.0199
     5.1284   5.4591   5.6080   6.2274   6.3111   6.6788   6.8144   6.9679
     7.0248   7.1078   7.2908   8.1539   8.4595   8.5206   8.7876   8.9310
     9.0406   9.0758   9.2072   9.3093   9.4253   9.4872   9.7269   9.7541
     9.8113  10.0181  10.0826  10.3284  12.0020  12.0759  12.1525  13.6723
    14.5538  15.9371  16.8927  17.0174  17.2233  17.6024  17.7574  18.1855

     occupation numbers 
     1.0000   1.0000   1.0000   1.0000   1.0000   1.0000   1.0000   1.0000
     1.0000   1.0000   1.0000   1.0000   1.0000   1.0000   1.0000   1.0000
     1.0000   1.0000   1.0000   1.0000   1.0000   1.0000   1.0000   1.0000
     1.0000   1.0000   1.0000   1.0000   1.0000   1.0000   1.0000   1.0000
     1.0000   1.0000   1.0000   1.0000   1.0000   1.0000   1.0000   1.0000
     1.0000   1.0000   1.0000   1.0000   1.0000   1.0000   1.0000   1.0000
     1.0000   1.0000   1.0000   1.0000   0.0000   0.0000   0.0000   0.0000
     0.0000   0.0000   0.0000   0.0000   0.0000   0.0000   0.0000   0.0000

          k = 0.4375 0.3125-0.1441 (  8554 PWs)   bands (ev):

   -29.9531 -14.5037 -14.4798 -10.8196 -10.6321 -10.3121  -6.9193  -6.6469
    -6.5392  -6.3858  -6.1765  -5.8484  -5.7108  -0.4550  -0.4233  -0.2240
    -0.1865  -0.0203   0.1390   3.3877   3.9230   4.9546   4.9590   5.0191
     5.1513   5.4616   5.5808   6.2172   6.3297   6.6865   6.7942   6.9616
     7.0153   7.1168   7.2875   8.2730   8.4058   8.5362   8.7540   8.9431
     9.0461   9.1243   9.1756   9.2994   9.4045   9.4332   9.7405   9.7602
     9.8289   9.9719  10.0774  10.3265  12.0034  12.0871  12.1924  13.6926
    14.5378  15.9058  16.8861  16.9692  17.1880  17.6716  17.7181  18.2463

     occupation numbers 
     1.0000   1.0000   1.0000   1.0000   1.0000   1.0000   1.0000   1.0000
     1.0000   1.0000   1.0000   1.0000   1.0000   1.0000   1.0000   1.0000
     1.0000   1.0000   1.0000   1.0000   1.0000   1.0000   1.0000   1.0000
     1.0000   1.0000   1.0000   1.0000   1.0000   1.0000   1.0000   1.0000
     1.0000   1.0000   1.0000   1.0000   1.0000   1.0000   1.0000   1.0000
     1.0000   1.0000   1.0000   1.0000   1.0000   1.0000   1.0000   1.0000
     1.0000   1.0000   1.0000   1.0000   0.0000   0.0000   0.0000   0.0000
     0.0000   0.0000   0.0000   0.0000   0.0000   0.0000   0.0000   0.0000

     the Fermi energy is    10.6874 ev
     (compare with:    10.5977 eV, computed in scf)

     Writing all to output data dir ./YBCO7/YBCO7.save/
 
     init_run     :      0.58s CPU      0.68s WALL (       1 calls)
     electrons    :    174.42s CPU    176.79s WALL (       1 calls)

     Called by init_run:
     wfcinit      :      0.00s CPU      0.00s WALL (       1 calls)
     wfcinit:atom :      0.04s CPU      0.05s WALL (      64 calls)
     wfcinit:wfcr :      2.87s CPU      2.93s WALL (      64 calls)
     potinit      :      0.01s CPU      0.01s WALL (       1 calls)
     hinit0       :      0.27s CPU      0.27s WALL (       1 calls)

     Called by electrons:
     c_bands      :    174.31s CPU    176.68s WALL (       1 calls)
     v_of_rho     :      0.00s CPU      0.00s WALL (       1 calls)
     v_h          :      0.00s CPU      0.00s WALL (       1 calls)
     v_xc         :      0.00s CPU      0.00s WALL (       1 calls)
     newd         :      0.26s CPU      0.35s WALL (       1 calls)

     Called by c_bands:
     init_us_2    :      0.06s CPU      0.08s WALL (      64 calls)
     init_us_2:cp :      0.06s CPU      0.08s WALL (      64 calls)
     cegterg      :    170.46s CPU    172.70s WALL (     372 calls)

     Called by sum_band:

     Called by *egterg:
     cdiaghg      :     20.38s CPU     20.58s WALL (    7305 calls)
     cegterg:over :     16.68s CPU     16.91s WALL (    7241 calls)
     cegterg:upda :      9.58s CPU      9.64s WALL (    7241 calls)
     cegterg:last :     21.44s CPU     21.47s WALL (    2724 calls)
     h_psi        :     88.56s CPU     90.08s WALL (    7677 calls)
     s_psi        :     11.64s CPU     11.73s WALL (    7677 calls)
     g_psi        :      0.66s CPU      0.67s WALL (    7241 calls)

     Called by h_psi:
     h_psi:calbec :     12.62s CPU     12.89s WALL (    7677 calls)
     vloc_psi     :     62.10s CPU     63.15s WALL (    7677 calls)
     add_vuspsi   :     12.99s CPU     13.18s WALL (    7677 calls)

     General routines
     calbec       :     12.61s CPU     12.88s WALL (    7677 calls)
     fft          :      0.01s CPU      0.01s WALL (       6 calls)
     ffts         :      0.00s CPU      0.00s WALL (       1 calls)
     fftw         :     46.71s CPU     47.50s WALL (  373620 calls)
     interpolate  :      0.00s CPU      0.00s WALL (       1 calls)
     davcio       :      0.10s CPU      0.13s WALL (     128 calls)
 
     Parallel routines
 
     PWSCF        :   2m55.29s CPU   2m58.04s WALL

 
   This run was terminated on:  17:50:36  31Dec2023            

=------------------------------------------------------------------------------=
   JOB DONE.
=------------------------------------------------------------------------------=
