
     Program PWSCF v.7.2 starts on 31Dec2023 at 18:32:39 

     This program is part of the open-source Quantum ESPRESSO suite
     for quantum simulation of materials; please cite
         "P. Giannozzi et al., J. Phys.:Condens. Matter 21 395502 (2009);
         "P. Giannozzi et al., J. Phys.:Condens. Matter 29 465901 (2017);
         "P. Giannozzi et al., J. Chem. Phys. 152 154105 (2020);
          URL http://www.quantum-espresso.org", 
     in publications or presentations arising from this work. More details at
     http://www.quantum-espresso.org/quote

     Parallel version (MPI), running on     4 processors

     MPI processes distributed on     1 nodes
     5448 MiB available memory on the printing compute node when the environment starts
 
     Waiting for input...
     Reading input from standard input

     Current dimensions of program PWSCF are:
     Max number of different atomic species (ntypx) = 10
     Max number of k-points (npk) =  40000
     Max angular momentum in pseudopotentials (lmaxx) =  4
     file Y.pz-spn-rrkjus_psl.1.0.0.UPF: wavefunction(s)  4S renormalized
     file Ba.pz-spn-rrkjus_psl.1.0.0.UPF: wavefunction(s)  5S 6S renormalized
     file Cu.pz-dn-rrkjus_psl.1.0.0.UPF: wavefunction(s)  3D renormalized

     Atomic positions and unit cell read from directory:
     ./YBCO7/YBCO7.save/
 
 
     R & G space division:  proc/nbgrp/npool/nimage =       4
     Subspace diagonalization in iterative solution of the eigenvalue problem:
     a serial algorithm will be used

 
     Parallelization info
     --------------------
     sticks:   dense  smooth     PW     G-vecs:    dense   smooth      PW
     Min         544     242     70                57618    17092    2717
     Max         545     244     72                57625    17096    2722
     Sum        2177     973    285               230487    68375   10877
 
     Using Slab Decomposition
 


     bravais-lattice index     =            6
     lattice parameter (alat)  =       7.1036  a.u.
     unit-cell volume          =    1088.3314 (a.u.)^3
     number of atoms/cell      =           13
     number of atomic types    =            4
     number of electrons       =       106.00
     number of Kohn-Sham states=           82
     kinetic-energy cutoff     =      60.0000  Ry
     charge density cutoff     =     540.0000  Ry
     Exchange-correlation= LDA
                           (   1   1   0   0   0   0   0)

     celldm(1)=   7.103626  celldm(2)=   1.012958  celldm(3)=   3.036133
     celldm(4)=   0.000000  celldm(5)=   0.000000  celldm(6)=   0.000000

     crystal axes: (cart. coord. in units of alat)
               a(1) = (   1.000000   0.000000   0.000000 )  
               a(2) = (   0.000000   1.000000   0.000000 )  
               a(3) = (   0.000000   0.000000   3.036133 )  

     reciprocal axes: (cart. coord. in units 2 pi/alat)
               b(1) = (  1.000000  0.000000  0.000000 )  
               b(2) = (  0.000000  1.000000  0.000000 )  
               b(3) = (  0.000000  0.000000  0.329366 )  


     PseudoPot. # 1 for Y  read from file:
     ~/q-e/pslibrary/pz/PSEUDOPOTENTIALS/Y.pz-spn-rrkjus_psl.1.0.0.UPF
     MD5 check sum: Not computed, couldn't open file
     Pseudo is Ultrasoft + core correction, Zval = 11.0
     Generated using 'atomic' code by A. Dal Corso  v.7.2
     Using radial grid of 1223 points,  6 beta functions with: 
                l(1) =   0
                l(2) =   0
                l(3) =   1
                l(4) =   1
                l(5) =   2
                l(6) =   2
     Q(r) pseudized with 0 coefficients 


     PseudoPot. # 2 for Ba read from file:
     ~/q-e/pslibrary/pz/PSEUDOPOTENTIALS/Ba.pz-spn-rrkjus_psl.1.0.0.UPF
     MD5 check sum: Not computed, couldn't open file
     Pseudo is Ultrasoft + core correction, Zval = 10.0
     Generated using 'atomic' code by A. Dal Corso  v.7.2
     Using radial grid of 1251 points,  7 beta functions with: 
                l(1) =   0
                l(2) =   0
                l(3) =   0
                l(4) =   1
                l(5) =   1
                l(6) =   2
                l(7) =   2
     Q(r) pseudized with 0 coefficients 


     PseudoPot. # 3 for Cu read from file:
     ~/q-e/pslibrary/pz/PSEUDOPOTENTIALS/Cu.pz-dn-rrkjus_psl.1.0.0.UPF
     MD5 check sum: Not computed, couldn't open file
     Pseudo is Ultrasoft + core correction, Zval = 11.0
     Generated using 'atomic' code by A. Dal Corso  v.7.2
     Using radial grid of 1199 points,  6 beta functions with: 
                l(1) =   0
                l(2) =   0
                l(3) =   1
                l(4) =   1
                l(5) =   2
                l(6) =   2
     Q(r) pseudized with 0 coefficients 


     PseudoPot. # 4 for O  read from file:
     ~/q-e/pslibrary/pz/PSEUDOPOTENTIALS/O.pz-n-rrkjus_psl.1.0.0.UPF
     MD5 check sum: Not computed, couldn't open file
     Pseudo is Ultrasoft + core correction, Zval =  6.0
     Generated using 'atomic' code by A. Dal Corso  v.7.2
     Using radial grid of 1095 points,  4 beta functions with: 
                l(1) =   0
                l(2) =   0
                l(3) =   1
                l(4) =   1
     Q(r) pseudized with 0 coefficients 


     atomic species   valence    mass     pseudopotential
     Y                11.00    88.90584     Y ( 1.00)
     Ba               10.00   137.32700     Ba( 1.00)
     Cu               11.00    63.54600     Cu( 1.00)
     O                 6.00    15.99900     O ( 1.00)

      8 Sym. Ops., with inversion, found


                                    s                        frac. trans.

      isym =  1     identity                                     

 cryst.   s( 1) = (     1          0          0      )
                  (     0          1          0      )
                  (     0          0          1      )

 cart.    s( 1) = (  1.0000000  0.0000000  0.0000000 )
                  (  0.0000000  1.0000000  0.0000000 )
                  (  0.0000000  0.0000000  1.0000000 )


      isym =  2     180 deg rotation - cart. axis [0,0,1]        

 cryst.   s( 2) = (    -1          0          0      )
                  (     0         -1          0      )
                  (     0          0          1      )

 cart.    s( 2) = ( -1.0000000  0.0000000  0.0000000 )
                  (  0.0000000 -1.0000000  0.0000000 )
                  (  0.0000000  0.0000000  1.0000000 )


      isym =  3     180 deg rotation - cart. axis [0,1,0]        

 cryst.   s( 3) = (    -1          0          0      )
                  (     0          1          0      )
                  (     0          0         -1      )

 cart.    s( 3) = ( -1.0000000  0.0000000  0.0000000 )
                  (  0.0000000  1.0000000  0.0000000 )
                  (  0.0000000  0.0000000 -1.0000000 )


      isym =  4     180 deg rotation - cart. axis [1,0,0]        

 cryst.   s( 4) = (     1          0          0      )
                  (     0         -1          0      )
                  (     0          0         -1      )

 cart.    s( 4) = (  1.0000000  0.0000000  0.0000000 )
                  (  0.0000000 -1.0000000  0.0000000 )
                  (  0.0000000  0.0000000 -1.0000000 )


      isym =  5     inversion                                    

 cryst.   s( 5) = (    -1          0          0      )
                  (     0         -1          0      )
                  (     0          0         -1      )

 cart.    s( 5) = ( -1.0000000  0.0000000  0.0000000 )
                  (  0.0000000 -1.0000000  0.0000000 )
                  (  0.0000000  0.0000000 -1.0000000 )


      isym =  6     inv. 180 deg rotation - cart. axis [0,0,1]   

 cryst.   s( 6) = (     1          0          0      )
                  (     0          1          0      )
                  (     0          0         -1      )

 cart.    s( 6) = (  1.0000000  0.0000000  0.0000000 )
                  (  0.0000000  1.0000000  0.0000000 )
                  (  0.0000000  0.0000000 -1.0000000 )


      isym =  7     inv. 180 deg rotation - cart. axis [0,1,0]   

 cryst.   s( 7) = (     1          0          0      )
                  (     0         -1          0      )
                  (     0          0          1      )

 cart.    s( 7) = (  1.0000000  0.0000000  0.0000000 )
                  (  0.0000000 -1.0000000  0.0000000 )
                  (  0.0000000  0.0000000  1.0000000 )


      isym =  8     inv. 180 deg rotation - cart. axis [1,0,0]   

 cryst.   s( 8) = (    -1          0          0      )
                  (     0          1          0      )
                  (     0          0          1      )

 cart.    s( 8) = ( -1.0000000  0.0000000  0.0000000 )
                  (  0.0000000  1.0000000  0.0000000 )
                  (  0.0000000  0.0000000  1.0000000 )


     point group D_2h (mmm) 
     there are  8 classes
     the character table:

       E     C2    C2'   C2''  i     s_v   s_v'  s_v''
A_g    1.00  1.00  1.00  1.00  1.00  1.00  1.00  1.00
B_1g   1.00  1.00 -1.00 -1.00  1.00  1.00 -1.00 -1.00
B_2g   1.00 -1.00  1.00 -1.00  1.00 -1.00  1.00 -1.00
B_3g   1.00 -1.00 -1.00  1.00  1.00 -1.00 -1.00  1.00
A_u    1.00  1.00  1.00  1.00 -1.00 -1.00 -1.00 -1.00
B_1u   1.00  1.00 -1.00 -1.00 -1.00 -1.00  1.00  1.00
B_2u   1.00 -1.00  1.00 -1.00 -1.00  1.00 -1.00  1.00
B_3u   1.00 -1.00 -1.00  1.00 -1.00  1.00  1.00 -1.00

     the symmetry operations in each class and the name of the first element:

     E        1
          identity                                               
     C2       2
          180 deg rotation - cart. axis [0,0,1]                  
     C2'      4
          180 deg rotation - cart. axis [1,0,0]                  
     C2''     3
          180 deg rotation - cart. axis [0,1,0]                  
     i        5
          inversion                                              
     s_v      6
          inv. 180 deg rotation - cart. axis [0,0,1]             
     s_v'     8
          inv. 180 deg rotation - cart. axis [1,0,0]             
     s_v''    7
          inv. 180 deg rotation - cart. axis [0,1,0]             

   Cartesian axes

     site n.     atom                  positions (alat units)
         1        Y      tau(   1) = (   0.5000000   0.5000000   1.5180667  )
         2        Ba     tau(   2) = (   0.5000000   0.5000000   0.5513414  )
         3        Ba     tau(   3) = (   0.5000000   0.5000000   2.4847919  )
         4        Cu     tau(   4) = (   0.0000000   0.0000000   0.0000000  )
         5        Cu     tau(   5) = (   0.0000000   0.0000000   1.0679987  )
         6        Cu     tau(   6) = (   0.0000000   0.0000000   1.9681346  )
         7        O      tau(   7) = (   0.5000000   0.0000000   1.1440566  )
         8        O      tau(   8) = (   0.5000000   0.0000000   1.8920768  )
         9        O      tau(   9) = (   0.0000000   0.5000000   1.1430559  )
        10        O      tau(  10) = (   0.0000000   0.5000000   1.8930775  )
        11        O      tau(  11) = (   0.0000000   0.0000000   0.4880253  )
        12        O      tau(  12) = (   0.0000000   0.0000000   2.5481081  )
        13        O      tau(  13) = (   0.0000000   0.5000000   0.0000000  )

   Crystallographic axes

     site n.     atom                  positions (cryst. coord.)
         1        Y      tau(   1) = (  0.5000000  0.5000000  0.5000000  )
         2        Ba     tau(   2) = (  0.5000000  0.5000000  0.1815933  )
         3        Ba     tau(   3) = (  0.5000000  0.5000000  0.8184067  )
         4        Cu     tau(   4) = (  0.0000000  0.0000000  0.0000000  )
         5        Cu     tau(   5) = (  0.0000000  0.0000000  0.3517628  )
         6        Cu     tau(   6) = (  0.0000000  0.0000000  0.6482372  )
         7        O      tau(   7) = (  0.5000000  0.0000000  0.3768137  )
         8        O      tau(   8) = (  0.5000000  0.0000000  0.6231863  )
         9        O      tau(   9) = (  0.0000000  0.5000000  0.3764841  )
        10        O      tau(  10) = (  0.0000000  0.5000000  0.6235159  )
        11        O      tau(  11) = (  0.0000000  0.0000000  0.1607391  )
        12        O      tau(  12) = (  0.0000000  0.0000000  0.8392609  )
        13        O      tau(  13) = (  0.0000000  0.5000000  0.0000000  )

     number of k points=   101
                       cart. coord. in units 2pi/alat
        k(    1) = (   0.0000000   0.0000000   0.0000000), wk =   0.0198020
        k(    2) = (   0.0000000   0.0250000   0.0000000), wk =   0.0198020
        k(    3) = (   0.0000000   0.0500000   0.0000000), wk =   0.0198020
        k(    4) = (   0.0000000   0.0750000   0.0000000), wk =   0.0198020
        k(    5) = (   0.0000000   0.1000000   0.0000000), wk =   0.0198020
        k(    6) = (   0.0000000   0.1250000   0.0000000), wk =   0.0198020
        k(    7) = (   0.0000000   0.1500000   0.0000000), wk =   0.0198020
        k(    8) = (   0.0000000   0.1750000   0.0000000), wk =   0.0198020
        k(    9) = (   0.0000000   0.2000000   0.0000000), wk =   0.0198020
        k(   10) = (   0.0000000   0.2250000   0.0000000), wk =   0.0198020
        k(   11) = (   0.0000000   0.2500000   0.0000000), wk =   0.0198020
        k(   12) = (   0.0000000   0.2750000   0.0000000), wk =   0.0198020
        k(   13) = (   0.0000000   0.3000000   0.0000000), wk =   0.0198020
        k(   14) = (   0.0000000   0.3250000   0.0000000), wk =   0.0198020
        k(   15) = (   0.0000000   0.3500000   0.0000000), wk =   0.0198020
        k(   16) = (   0.0000000   0.3750000   0.0000000), wk =   0.0198020
        k(   17) = (   0.0000000   0.4000000   0.0000000), wk =   0.0198020
        k(   18) = (   0.0000000   0.4250000   0.0000000), wk =   0.0198020
        k(   19) = (   0.0000000   0.4500000   0.0000000), wk =   0.0198020
        k(   20) = (   0.0000000   0.4750000   0.0000000), wk =   0.0198020
        k(   21) = (   0.0000000   0.5000000   0.0000000), wk =   0.0198020
        k(   22) = (   0.0250000   0.5000000   0.0000000), wk =   0.0198020
        k(   23) = (   0.0500000   0.5000000   0.0000000), wk =   0.0198020
        k(   24) = (   0.0750000   0.5000000   0.0000000), wk =   0.0198020
        k(   25) = (   0.1000000   0.5000000   0.0000000), wk =   0.0198020
        k(   26) = (   0.1250000   0.5000000   0.0000000), wk =   0.0198020
        k(   27) = (   0.1500000   0.5000000   0.0000000), wk =   0.0198020
        k(   28) = (   0.1750000   0.5000000   0.0000000), wk =   0.0198020
        k(   29) = (   0.2000000   0.5000000   0.0000000), wk =   0.0198020
        k(   30) = (   0.2250000   0.5000000   0.0000000), wk =   0.0198020
        k(   31) = (   0.2500000   0.5000000   0.0000000), wk =   0.0198020
        k(   32) = (   0.2750000   0.5000000   0.0000000), wk =   0.0198020
        k(   33) = (   0.3000000   0.5000000   0.0000000), wk =   0.0198020
        k(   34) = (   0.3250000   0.5000000   0.0000000), wk =   0.0198020
        k(   35) = (   0.3500000   0.5000000   0.0000000), wk =   0.0198020
        k(   36) = (   0.3750000   0.5000000   0.0000000), wk =   0.0198020
        k(   37) = (   0.4000000   0.5000000   0.0000000), wk =   0.0198020
        k(   38) = (   0.4250000   0.5000000   0.0000000), wk =   0.0198020
        k(   39) = (   0.4500000   0.5000000   0.0000000), wk =   0.0198020
        k(   40) = (   0.4750000   0.5000000   0.0000000), wk =   0.0198020
        k(   41) = (   0.5000000   0.5000000   0.0000000), wk =   0.0198020
        k(   42) = (   0.5000000   0.4750000   0.0000000), wk =   0.0198020
        k(   43) = (   0.5000000   0.4500000   0.0000000), wk =   0.0198020
        k(   44) = (   0.5000000   0.4250000   0.0000000), wk =   0.0198020
        k(   45) = (   0.5000000   0.4000000   0.0000000), wk =   0.0198020
        k(   46) = (   0.5000000   0.3750000   0.0000000), wk =   0.0198020
        k(   47) = (   0.5000000   0.3500000   0.0000000), wk =   0.0198020
        k(   48) = (   0.5000000   0.3250000   0.0000000), wk =   0.0198020
        k(   49) = (   0.5000000   0.3000000   0.0000000), wk =   0.0198020
        k(   50) = (   0.5000000   0.2750000   0.0000000), wk =   0.0198020
        k(   51) = (   0.5000000   0.2500000   0.0000000), wk =   0.0198020
        k(   52) = (   0.5000000   0.2250000   0.0000000), wk =   0.0198020
        k(   53) = (   0.5000000   0.2000000   0.0000000), wk =   0.0198020
        k(   54) = (   0.5000000   0.1750000   0.0000000), wk =   0.0198020
        k(   55) = (   0.5000000   0.1500000   0.0000000), wk =   0.0198020
        k(   56) = (   0.5000000   0.1250000   0.0000000), wk =   0.0198020
        k(   57) = (   0.5000000   0.1000000   0.0000000), wk =   0.0198020
        k(   58) = (   0.5000000   0.0750000   0.0000000), wk =   0.0198020
        k(   59) = (   0.5000000   0.0500000   0.0000000), wk =   0.0198020
        k(   60) = (   0.5000000   0.0250000   0.0000000), wk =   0.0198020
        k(   61) = (   0.5000000   0.0000000   0.0000000), wk =   0.0198020
        k(   62) = (   0.4750000   0.0000000   0.0000000), wk =   0.0198020
        k(   63) = (   0.4500000   0.0000000   0.0000000), wk =   0.0198020
        k(   64) = (   0.4250000   0.0000000   0.0000000), wk =   0.0198020
        k(   65) = (   0.4000000   0.0000000   0.0000000), wk =   0.0198020
        k(   66) = (   0.3750000   0.0000000   0.0000000), wk =   0.0198020
        k(   67) = (   0.3500000   0.0000000   0.0000000), wk =   0.0198020
        k(   68) = (   0.3250000   0.0000000   0.0000000), wk =   0.0198020
        k(   69) = (   0.3000000   0.0000000   0.0000000), wk =   0.0198020
        k(   70) = (   0.2750000   0.0000000   0.0000000), wk =   0.0198020
        k(   71) = (   0.2500000   0.0000000   0.0000000), wk =   0.0198020
        k(   72) = (   0.2250000   0.0000000   0.0000000), wk =   0.0198020
        k(   73) = (   0.2000000   0.0000000   0.0000000), wk =   0.0198020
        k(   74) = (   0.1750000   0.0000000   0.0000000), wk =   0.0198020
        k(   75) = (   0.1500000   0.0000000   0.0000000), wk =   0.0198020
        k(   76) = (   0.1250000   0.0000000   0.0000000), wk =   0.0198020
        k(   77) = (   0.1000000   0.0000000   0.0000000), wk =   0.0198020
        k(   78) = (   0.0750000   0.0000000   0.0000000), wk =   0.0198020
        k(   79) = (   0.0500000   0.0000000   0.0000000), wk =   0.0198020
        k(   80) = (   0.0250000   0.0000000   0.0000000), wk =   0.0198020
        k(   81) = (   0.0000000   0.0000000   0.0000000), wk =   0.0198020
        k(   82) = (   0.0250000   0.0250000   0.0000000), wk =   0.0198020
        k(   83) = (   0.0500000   0.0500000   0.0000000), wk =   0.0198020
        k(   84) = (   0.0750000   0.0750000   0.0000000), wk =   0.0198020
        k(   85) = (   0.1000000   0.1000000   0.0000000), wk =   0.0198020
        k(   86) = (   0.1250000   0.1250000   0.0000000), wk =   0.0198020
        k(   87) = (   0.1500000   0.1500000   0.0000000), wk =   0.0198020
        k(   88) = (   0.1750000   0.1750000   0.0000000), wk =   0.0198020
        k(   89) = (   0.2000000   0.2000000   0.0000000), wk =   0.0198020
        k(   90) = (   0.2250000   0.2250000   0.0000000), wk =   0.0198020
        k(   91) = (   0.2500000   0.2500000   0.0000000), wk =   0.0198020
        k(   92) = (   0.2750000   0.2750000   0.0000000), wk =   0.0198020
        k(   93) = (   0.3000000   0.3000000   0.0000000), wk =   0.0198020
        k(   94) = (   0.3250000   0.3250000   0.0000000), wk =   0.0198020
        k(   95) = (   0.3500000   0.3500000   0.0000000), wk =   0.0198020
        k(   96) = (   0.3750000   0.3750000   0.0000000), wk =   0.0198020
        k(   97) = (   0.4000000   0.4000000   0.0000000), wk =   0.0198020
        k(   98) = (   0.4250000   0.4250000   0.0000000), wk =   0.0198020
        k(   99) = (   0.4500000   0.4500000   0.0000000), wk =   0.0198020
        k(  100) = (   0.4750000   0.4750000   0.0000000), wk =   0.0198020
        k(  101) = (   0.5000000   0.5000000   0.0000000), wk =   0.0198020

                       cryst. coord.
        k(    1) = (   0.0000000   0.0000000   0.0000000), wk =   0.0198020
        k(    2) = (   0.0000000   0.0250000   0.0000000), wk =   0.0198020
        k(    3) = (   0.0000000   0.0500000   0.0000000), wk =   0.0198020
        k(    4) = (   0.0000000   0.0750000   0.0000000), wk =   0.0198020
        k(    5) = (   0.0000000   0.1000000   0.0000000), wk =   0.0198020
        k(    6) = (   0.0000000   0.1250000   0.0000000), wk =   0.0198020
        k(    7) = (   0.0000000   0.1500000   0.0000000), wk =   0.0198020
        k(    8) = (   0.0000000   0.1750000   0.0000000), wk =   0.0198020
        k(    9) = (   0.0000000   0.2000000   0.0000000), wk =   0.0198020
        k(   10) = (   0.0000000   0.2250000   0.0000000), wk =   0.0198020
        k(   11) = (   0.0000000   0.2500000   0.0000000), wk =   0.0198020
        k(   12) = (   0.0000000   0.2750000   0.0000000), wk =   0.0198020
        k(   13) = (   0.0000000   0.3000000   0.0000000), wk =   0.0198020
        k(   14) = (   0.0000000   0.3250000   0.0000000), wk =   0.0198020
        k(   15) = (   0.0000000   0.3500000   0.0000000), wk =   0.0198020
        k(   16) = (   0.0000000   0.3750000   0.0000000), wk =   0.0198020
        k(   17) = (   0.0000000   0.4000000   0.0000000), wk =   0.0198020
        k(   18) = (   0.0000000   0.4250000   0.0000000), wk =   0.0198020
        k(   19) = (   0.0000000   0.4500000   0.0000000), wk =   0.0198020
        k(   20) = (   0.0000000   0.4750000   0.0000000), wk =   0.0198020
        k(   21) = (   0.0000000   0.5000000   0.0000000), wk =   0.0198020
        k(   22) = (   0.0250000   0.5000000   0.0000000), wk =   0.0198020
        k(   23) = (   0.0500000   0.5000000   0.0000000), wk =   0.0198020
        k(   24) = (   0.0750000   0.5000000   0.0000000), wk =   0.0198020
        k(   25) = (   0.1000000   0.5000000   0.0000000), wk =   0.0198020
        k(   26) = (   0.1250000   0.5000000   0.0000000), wk =   0.0198020
        k(   27) = (   0.1500000   0.5000000   0.0000000), wk =   0.0198020
        k(   28) = (   0.1750000   0.5000000   0.0000000), wk =   0.0198020
        k(   29) = (   0.2000000   0.5000000   0.0000000), wk =   0.0198020
        k(   30) = (   0.2250000   0.5000000   0.0000000), wk =   0.0198020
        k(   31) = (   0.2500000   0.5000000   0.0000000), wk =   0.0198020
        k(   32) = (   0.2750000   0.5000000   0.0000000), wk =   0.0198020
        k(   33) = (   0.3000000   0.5000000   0.0000000), wk =   0.0198020
        k(   34) = (   0.3250000   0.5000000   0.0000000), wk =   0.0198020
        k(   35) = (   0.3500000   0.5000000   0.0000000), wk =   0.0198020
        k(   36) = (   0.3750000   0.5000000   0.0000000), wk =   0.0198020
        k(   37) = (   0.4000000   0.5000000   0.0000000), wk =   0.0198020
        k(   38) = (   0.4250000   0.5000000   0.0000000), wk =   0.0198020
        k(   39) = (   0.4500000   0.5000000   0.0000000), wk =   0.0198020
        k(   40) = (   0.4750000   0.5000000   0.0000000), wk =   0.0198020
        k(   41) = (   0.5000000   0.5000000   0.0000000), wk =   0.0198020
        k(   42) = (   0.5000000   0.4750000   0.0000000), wk =   0.0198020
        k(   43) = (   0.5000000   0.4500000   0.0000000), wk =   0.0198020
        k(   44) = (   0.5000000   0.4250000   0.0000000), wk =   0.0198020
        k(   45) = (   0.5000000   0.4000000   0.0000000), wk =   0.0198020
        k(   46) = (   0.5000000   0.3750000   0.0000000), wk =   0.0198020
        k(   47) = (   0.5000000   0.3500000   0.0000000), wk =   0.0198020
        k(   48) = (   0.5000000   0.3250000   0.0000000), wk =   0.0198020
        k(   49) = (   0.5000000   0.3000000   0.0000000), wk =   0.0198020
        k(   50) = (   0.5000000   0.2750000   0.0000000), wk =   0.0198020
        k(   51) = (   0.5000000   0.2500000   0.0000000), wk =   0.0198020
        k(   52) = (   0.5000000   0.2250000   0.0000000), wk =   0.0198020
        k(   53) = (   0.5000000   0.2000000   0.0000000), wk =   0.0198020
        k(   54) = (   0.5000000   0.1750000   0.0000000), wk =   0.0198020
        k(   55) = (   0.5000000   0.1500000   0.0000000), wk =   0.0198020
        k(   56) = (   0.5000000   0.1250000   0.0000000), wk =   0.0198020
        k(   57) = (   0.5000000   0.1000000   0.0000000), wk =   0.0198020
        k(   58) = (   0.5000000   0.0750000   0.0000000), wk =   0.0198020
        k(   59) = (   0.5000000   0.0500000   0.0000000), wk =   0.0198020
        k(   60) = (   0.5000000   0.0250000   0.0000000), wk =   0.0198020
        k(   61) = (   0.5000000   0.0000000   0.0000000), wk =   0.0198020
        k(   62) = (   0.4750000   0.0000000   0.0000000), wk =   0.0198020
        k(   63) = (   0.4500000   0.0000000   0.0000000), wk =   0.0198020
        k(   64) = (   0.4250000   0.0000000   0.0000000), wk =   0.0198020
        k(   65) = (   0.4000000   0.0000000   0.0000000), wk =   0.0198020
        k(   66) = (   0.3750000   0.0000000   0.0000000), wk =   0.0198020
        k(   67) = (   0.3500000   0.0000000   0.0000000), wk =   0.0198020
        k(   68) = (   0.3250000   0.0000000   0.0000000), wk =   0.0198020
        k(   69) = (   0.3000000   0.0000000   0.0000000), wk =   0.0198020
        k(   70) = (   0.2750000   0.0000000   0.0000000), wk =   0.0198020
        k(   71) = (   0.2500000   0.0000000   0.0000000), wk =   0.0198020
        k(   72) = (   0.2250000   0.0000000   0.0000000), wk =   0.0198020
        k(   73) = (   0.2000000   0.0000000   0.0000000), wk =   0.0198020
        k(   74) = (   0.1750000   0.0000000   0.0000000), wk =   0.0198020
        k(   75) = (   0.1500000   0.0000000   0.0000000), wk =   0.0198020
        k(   76) = (   0.1250000   0.0000000   0.0000000), wk =   0.0198020
        k(   77) = (   0.1000000   0.0000000   0.0000000), wk =   0.0198020
        k(   78) = (   0.0750000   0.0000000   0.0000000), wk =   0.0198020
        k(   79) = (   0.0500000   0.0000000   0.0000000), wk =   0.0198020
        k(   80) = (   0.0250000   0.0000000   0.0000000), wk =   0.0198020
        k(   81) = (   0.0000000   0.0000000   0.0000000), wk =   0.0198020
        k(   82) = (   0.0250000   0.0250000   0.0000000), wk =   0.0198020
        k(   83) = (   0.0500000   0.0500000   0.0000000), wk =   0.0198020
        k(   84) = (   0.0750000   0.0750000   0.0000000), wk =   0.0198020
        k(   85) = (   0.1000000   0.1000000   0.0000000), wk =   0.0198020
        k(   86) = (   0.1250000   0.1250000   0.0000000), wk =   0.0198020
        k(   87) = (   0.1500000   0.1500000   0.0000000), wk =   0.0198020
        k(   88) = (   0.1750000   0.1750000   0.0000000), wk =   0.0198020
        k(   89) = (   0.2000000   0.2000000   0.0000000), wk =   0.0198020
        k(   90) = (   0.2250000   0.2250000   0.0000000), wk =   0.0198020
        k(   91) = (   0.2500000   0.2500000   0.0000000), wk =   0.0198020
        k(   92) = (   0.2750000   0.2750000   0.0000000), wk =   0.0198020
        k(   93) = (   0.3000000   0.3000000   0.0000000), wk =   0.0198020
        k(   94) = (   0.3250000   0.3250000   0.0000000), wk =   0.0198020
        k(   95) = (   0.3500000   0.3500000   0.0000000), wk =   0.0198020
        k(   96) = (   0.3750000   0.3750000   0.0000000), wk =   0.0198020
        k(   97) = (   0.4000000   0.4000000   0.0000000), wk =   0.0198020
        k(   98) = (   0.4250000   0.4250000   0.0000000), wk =   0.0198020
        k(   99) = (   0.4500000   0.4500000   0.0000000), wk =   0.0198020
        k(  100) = (   0.4750000   0.4750000   0.0000000), wk =   0.0198020
        k(  101) = (   0.5000000   0.5000000   0.0000000), wk =   0.0198020

     Dense  grid:   230487 G-vectors     FFT dimensions: (  54,  54, 160)

     Smooth grid:    68375 G-vectors     FFT dimensions: (  36,  36, 108)

     Dynamical RAM for                 wfc:       2.67 MB

     Dynamical RAM for     wfc (w. buffer):       2.67 MB

     Dynamical RAM for           str. fact:       3.52 MB

     Dynamical RAM for           local pot:       0.00 MB

     Dynamical RAM for          nlocal pot:       5.41 MB

     Dynamical RAM for                qrad:       9.94 MB

     Dynamical RAM for          rho,v,vnew:       5.31 MB

     Dynamical RAM for           G-vectors:       3.43 MB

     Dynamical RAM for          h,s,v(r/c):       1.23 MB

     Dynamical RAM for          <psi|beta>:       0.21 MB

     Dynamical RAM for                 psi:       5.34 MB

     Dynamical RAM for                hpsi:       5.34 MB

     Dynamical RAM for                spsi:       5.34 MB

     Dynamical RAM for      wfcinit/wfcrot:       5.50 MB

     Dynamical RAM for           addusdens:     186.41 MB

     Estimated static dynamical RAM per process >      39.12 MB

     Estimated max dynamical RAM per process >     225.53 MB

     Estimated total dynamical RAM >     902.11 MB

     The potential is recalculated from file :
     ./YBCO7/YBCO7.save/charge-density

     Starting wfcs are   78 randomized atomic wfcs +    4 random wfcs

     Band Structure Calculation
     Davidson diagonalization with overlap

     Computing kpt #:     1  of   101
     total cpu time spent up to now is        3.1 secs

     Computing kpt #:     2  of   101
     total cpu time spent up to now is        5.3 secs

     Computing kpt #:     3  of   101
     total cpu time spent up to now is        7.5 secs

     Computing kpt #:     4  of   101
     total cpu time spent up to now is        9.6 secs

     Computing kpt #:     5  of   101
     total cpu time spent up to now is       11.9 secs

     Computing kpt #:     6  of   101
     total cpu time spent up to now is       14.0 secs

     Computing kpt #:     7  of   101
     total cpu time spent up to now is       16.2 secs

     Computing kpt #:     8  of   101
     total cpu time spent up to now is       18.3 secs

     Computing kpt #:     9  of   101
     total cpu time spent up to now is       20.5 secs

     Computing kpt #:    10  of   101
     total cpu time spent up to now is       23.1 secs

     Computing kpt #:    11  of   101
     total cpu time spent up to now is       25.8 secs

     Computing kpt #:    12  of   101
     c_bands:  1 eigenvalues not converged
     total cpu time spent up to now is       29.1 secs

     Computing kpt #:    13  of   101
     c_bands:  1 eigenvalues not converged
     total cpu time spent up to now is       32.3 secs

     Computing kpt #:    14  of   101
     total cpu time spent up to now is       35.1 secs

     Computing kpt #:    15  of   101
     total cpu time spent up to now is       37.9 secs

     Computing kpt #:    16  of   101
     total cpu time spent up to now is       40.6 secs

     Computing kpt #:    17  of   101
     total cpu time spent up to now is       43.1 secs

     Computing kpt #:    18  of   101
     total cpu time spent up to now is       45.8 secs

     Computing kpt #:    19  of   101
     total cpu time spent up to now is       48.3 secs

     Computing kpt #:    20  of   101
     total cpu time spent up to now is       50.7 secs

     Computing kpt #:    21  of   101
     total cpu time spent up to now is       53.1 secs

     Computing kpt #:    22  of   101
     total cpu time spent up to now is       55.6 secs

     Computing kpt #:    23  of   101
     total cpu time spent up to now is       58.1 secs

     Computing kpt #:    24  of   101
     total cpu time spent up to now is       60.5 secs

     Computing kpt #:    25  of   101
     total cpu time spent up to now is       63.0 secs

     Computing kpt #:    26  of   101
     total cpu time spent up to now is       65.5 secs

     Computing kpt #:    27  of   101
     total cpu time spent up to now is       68.1 secs

     Computing kpt #:    28  of   101
     total cpu time spent up to now is       70.6 secs

     Computing kpt #:    29  of   101
     total cpu time spent up to now is       73.3 secs

     Computing kpt #:    30  of   101
     total cpu time spent up to now is       76.0 secs

     Computing kpt #:    31  of   101
     total cpu time spent up to now is       78.5 secs

     Computing kpt #:    32  of   101
     total cpu time spent up to now is       81.1 secs

     Computing kpt #:    33  of   101
     total cpu time spent up to now is       83.9 secs

     Computing kpt #:    34  of   101
     total cpu time spent up to now is       86.9 secs

     Computing kpt #:    35  of   101
     total cpu time spent up to now is       90.0 secs

     Computing kpt #:    36  of   101
     total cpu time spent up to now is       92.9 secs

     Computing kpt #:    37  of   101
     total cpu time spent up to now is       96.0 secs

     Computing kpt #:    38  of   101
     total cpu time spent up to now is       98.8 secs

     Computing kpt #:    39  of   101
     total cpu time spent up to now is      101.7 secs

     Computing kpt #:    40  of   101
     total cpu time spent up to now is      104.6 secs

     Computing kpt #:    41  of   101
     total cpu time spent up to now is      107.3 secs

     Computing kpt #:    42  of   101
     total cpu time spent up to now is      110.6 secs

     Computing kpt #:    43  of   101
     c_bands:  1 eigenvalues not converged
     total cpu time spent up to now is      114.1 secs

     Computing kpt #:    44  of   101
     total cpu time spent up to now is      117.5 secs

     Computing kpt #:    45  of   101
     total cpu time spent up to now is      120.6 secs

     Computing kpt #:    46  of   101
     total cpu time spent up to now is      123.6 secs

     Computing kpt #:    47  of   101
     total cpu time spent up to now is      126.7 secs

     Computing kpt #:    48  of   101
     c_bands:  1 eigenvalues not converged
     total cpu time spent up to now is      130.2 secs

     Computing kpt #:    49  of   101
     total cpu time spent up to now is      133.0 secs

     Computing kpt #:    50  of   101
     total cpu time spent up to now is      135.8 secs

     Computing kpt #:    51  of   101
     total cpu time spent up to now is      138.5 secs

     Computing kpt #:    52  of   101
     total cpu time spent up to now is      141.5 secs

     Computing kpt #:    53  of   101
     total cpu time spent up to now is      144.8 secs

     Computing kpt #:    54  of   101
     total cpu time spent up to now is      147.6 secs

     Computing kpt #:    55  of   101
     total cpu time spent up to now is      150.4 secs

     Computing kpt #:    56  of   101
     total cpu time spent up to now is      153.1 secs

     Computing kpt #:    57  of   101
     total cpu time spent up to now is      155.8 secs

     Computing kpt #:    58  of   101
     total cpu time spent up to now is      158.4 secs

     Computing kpt #:    59  of   101
     total cpu time spent up to now is      161.1 secs

     Computing kpt #:    60  of   101
     total cpu time spent up to now is      163.8 secs

     Computing kpt #:    61  of   101
     total cpu time spent up to now is      166.5 secs

     Computing kpt #:    62  of   101
     total cpu time spent up to now is      169.3 secs

     Computing kpt #:    63  of   101
     total cpu time spent up to now is      172.0 secs

     Computing kpt #:    64  of   101
     total cpu time spent up to now is      174.8 secs

     Computing kpt #:    65  of   101
     total cpu time spent up to now is      178.0 secs

     Computing kpt #:    66  of   101
     c_bands:  1 eigenvalues not converged
     total cpu time spent up to now is      181.3 secs

     Computing kpt #:    67  of   101
     c_bands:  1 eigenvalues not converged
     total cpu time spent up to now is      184.5 secs

     Computing kpt #:    68  of   101
     c_bands:  1 eigenvalues not converged
     total cpu time spent up to now is      187.7 secs

     Computing kpt #:    69  of   101
     c_bands:  1 eigenvalues not converged
     total cpu time spent up to now is      190.9 secs

     Computing kpt #:    70  of   101
     total cpu time spent up to now is      194.1 secs

     Computing kpt #:    71  of   101
     c_bands:  1 eigenvalues not converged
     total cpu time spent up to now is      197.3 secs

     Computing kpt #:    72  of   101
     total cpu time spent up to now is      199.8 secs

     Computing kpt #:    73  of   101
     total cpu time spent up to now is      202.6 secs

     Computing kpt #:    74  of   101
     total cpu time spent up to now is      205.3 secs

     Computing kpt #:    75  of   101
     total cpu time spent up to now is      208.0 secs

     Computing kpt #:    76  of   101
     total cpu time spent up to now is      211.2 secs

     Computing kpt #:    77  of   101
     total cpu time spent up to now is      213.9 secs

     Computing kpt #:    78  of   101
     total cpu time spent up to now is      216.4 secs

     Computing kpt #:    79  of   101
     total cpu time spent up to now is      219.0 secs

     Computing kpt #:    80  of   101
     total cpu time spent up to now is      221.5 secs

     Computing kpt #:    81  of   101
     total cpu time spent up to now is      224.1 secs

     Computing kpt #:    82  of   101
     total cpu time spent up to now is      226.6 secs

     Computing kpt #:    83  of   101
     total cpu time spent up to now is      229.3 secs

     Computing kpt #:    84  of   101
     total cpu time spent up to now is      232.0 secs

     Computing kpt #:    85  of   101
     total cpu time spent up to now is      234.7 secs

     Computing kpt #:    86  of   101
     total cpu time spent up to now is      237.7 secs

     Computing kpt #:    87  of   101
     total cpu time spent up to now is      240.4 secs

     Computing kpt #:    88  of   101
     total cpu time spent up to now is      242.9 secs

     Computing kpt #:    89  of   101
     total cpu time spent up to now is      245.6 secs

     Computing kpt #:    90  of   101
     total cpu time spent up to now is      248.4 secs

     Computing kpt #:    91  of   101
     total cpu time spent up to now is      251.3 secs

     Computing kpt #:    92  of   101
     total cpu time spent up to now is      254.5 secs

     Computing kpt #:    93  of   101
     total cpu time spent up to now is      257.8 secs

     Computing kpt #:    94  of   101
     total cpu time spent up to now is      261.0 secs

     Computing kpt #:    95  of   101
     total cpu time spent up to now is      264.1 secs

     Computing kpt #:    96  of   101
     total cpu time spent up to now is      267.1 secs

     Computing kpt #:    97  of   101
     total cpu time spent up to now is      270.3 secs

     Computing kpt #:    98  of   101
     total cpu time spent up to now is      273.9 secs

     Computing kpt #:    99  of   101
     total cpu time spent up to now is      276.9 secs

     Computing kpt #:   100  of   101
     total cpu time spent up to now is      279.8 secs

     Computing kpt #:   101  of   101
     total cpu time spent up to now is      282.8 secs

     ethr =  9.43E-12,  avg # of iterations = 75.9

     total cpu time spent up to now is      282.8 secs

     End of band structure calculation

          k = 0.0000 0.0000 0.0000 (  8549 PWs)   bands (ev):

   -29.9865 -14.7817 -14.7452 -10.8717 -10.0860 -10.0815  -7.9177  -6.6852
    -6.6285  -6.5442  -6.2413  -5.6005  -5.5186   0.0106   0.0423   0.3020
     0.3367   0.3549   0.4186   5.1923   5.1938   5.4348   5.4937   5.5695
     5.5857   6.4732   6.8286   6.8513   7.1397   7.3473   7.4889   7.6377
     7.6802   7.7824   7.8452   7.9097   7.9117   7.9258   8.0182   8.0901
     8.4497   8.7365   8.7703   8.7729   8.7848   9.0314   9.0587   9.0913
     9.5355   9.6967  10.0997  10.1685  10.1706  10.3442  10.3570  13.3246
    13.8908  14.8164  14.8917  15.9954  16.0075  16.8323  17.0562  17.4606
    17.7906  17.9716  17.9971  18.4519  18.7339  19.0393  19.1028  19.6432
    19.6683  20.0401  20.5985  21.2155  22.2514  23.1670  23.1874  23.2230
    23.4825  23.8695

          k = 0.0000 0.0250 0.0000 (  8565 PWs)   bands (ev):

   -29.9863 -14.7807 -14.7441 -10.8698 -10.0929 -10.0813  -7.9109  -6.6833
    -6.6295  -6.5422  -6.2431  -5.6037  -5.5222   0.0103   0.0434   0.3020
     0.3376   0.3568   0.4205   5.1903   5.1944   5.4218   5.4938   5.5699
     5.5888   6.4760   6.8227   6.8279   7.1240   7.3443   7.4798   7.6228
     7.6558   7.7624   7.8460   7.8891   7.9322   7.9498   8.0462   8.0887
     8.4646   8.7149   8.7422   8.7863   8.8134   8.9756   9.0371   9.1692
     9.5547   9.6922  10.0556  10.1676  10.2290  10.3387  10.3600  13.3397
    13.8994  14.8309  14.9037  15.9935  16.0121  16.8426  17.0659  17.4671
    17.7741  17.9717  17.9922  18.4633  18.7338  19.0519  19.1165  19.6428
    19.6566  20.0549  20.6034  21.2198  22.2438  22.9739  23.1838  23.4339
    23.4944  23.8779

          k = 0.0000 0.0500 0.0000 (  8559 PWs)   bands (ev):

   -29.9860 -14.7774 -14.7410 -10.8640 -10.1133 -10.0808  -7.8910  -6.6777
    -6.6326  -6.5363  -6.2484  -5.6131  -5.5327   0.0094   0.0465   0.3018
     0.3403   0.3623   0.4263   5.1796   5.2008   5.3846   5.4946   5.5709
     5.5969   6.4826   6.7422   6.8255   7.0795   7.3353   7.4546   7.5814
     7.5986   7.7375   7.8218   7.8479   7.9778   8.0310   8.0845   8.0883
     8.5054   8.6349   8.7558   8.7910   8.8567   8.8784   9.0546   9.2528
     9.6046   9.6793   9.9964  10.1580  10.3225  10.3366  10.3698  13.3845
    13.9249  14.8744  14.9396  15.9876  16.0259  16.8732  17.0941  17.4865
    17.7307  17.9722  17.9781  18.4921  18.7347  19.0878  19.1567  19.6235
    19.6418  20.0981  20.6183  21.2320  22.2202  22.7479  23.2328  23.5306
    23.6506  23.9020

          k = 0.0000 0.0750 0.0000 (  8535 PWs)   bands (ev):

   -29.9853 -14.7721 -14.7358 -10.8544 -10.1460 -10.0800  -7.8590  -6.6686
    -6.6385  -6.5267  -6.2563  -5.6284  -5.5499   0.0081   0.0515   0.3017
     0.3446   0.3714   0.4359   5.1614   5.2116   5.3274   5.4950   5.5727
     5.6090   6.4840   6.6272   6.8202   7.0130   7.3198   7.4193   7.5200
     7.5274   7.7257   7.7464   7.8496   8.0300   8.0771   8.1210   8.1231
     8.5412   8.5631   8.7452   8.7989   8.8120   8.9104   9.0841   9.3249
     9.6596   9.6694   9.9388  10.1406  10.2966  10.3878  10.4721  13.4578
    13.9663  14.9462  14.9986  15.9782  16.0476  16.9235  17.1370  17.5178
    17.6752  17.9559  17.9741  18.5273  18.7386  19.1436  19.2205  19.5742
    19.6409  20.1669  20.6431  21.2509  22.1782  22.5325  23.3094  23.5932
    23.8457  23.9381

          k = 0.0000 0.1000 0.0000 (  8549 PWs)   bands (ev):

   -29.9845 -14.7649 -14.7287 -10.8412 -10.1892 -10.0789  -7.8165  -6.6563
    -6.6483  -6.5137  -6.2655  -5.6492  -5.5732   0.0067   0.0584   0.3016
     0.3503   0.3839   0.4490   5.1352   5.2265   5.2547   5.4929   5.5753
     5.6251   6.4231   6.5442   6.8079   6.9354   7.2969   7.3816   7.4456
     7.4510   7.6677   7.7242   7.8512   8.0660   8.0810   8.1465   8.1903
     8.4644   8.6285   8.6626   8.8101   8.8233   8.9751   9.1259   9.3796
     9.6353   9.7363   9.8855  10.1151  10.2620  10.4143  10.6314  13.5576
    14.0217  15.0455  15.0798  15.9655  16.0757  16.9929  17.1863  17.5596
    17.6251  17.9271  17.9784  18.5591  18.7475  19.2148  19.3034  19.5161
    19.6412  20.2573  20.6772  21.2737  22.1154  22.3349  23.4065  23.6843
    23.9804  24.0080

          k = 0.0000 0.1250 0.0000 (  8555 PWs)   bands (ev):

   -29.9835 -14.7558 -14.7198 -10.8247 -10.2408 -10.0775  -7.7654  -6.6633
    -6.6410  -6.4979  -6.2743  -5.6750  -5.6019   0.0055   0.0669   0.3016
     0.3571   0.3996   0.4654   5.1006   5.1705   5.2456   5.4863   5.5787
     5.6451   6.2684   6.5343   6.7711   6.8698   7.2641   7.3470   7.3635
     7.3752   7.5881   7.7286   7.8530   8.0504   8.1277   8.1572   8.1752
     8.4724   8.5737   8.6938   8.8249   8.8473   9.0486   9.1799   9.4080
     9.6097   9.7980   9.8449  10.0823  10.2204  10.4481  10.8087  13.6814
    14.0892  15.1710  15.1818  15.9500  16.1079  17.0797  17.2262  17.6023
    17.6106  17.8927  17.9860  18.5817  18.7620  19.2975  19.3975  19.4574
    19.6468  20.3654  20.7195  21.2953  22.0303  22.1643  23.5136  23.8052
    24.0217  24.1332

          k = 0.0000 0.1500 0.0000 (  8557 PWs)   bands (ev):

   -29.9823 -14.7452 -14.7094 -10.8050 -10.2987 -10.0758  -7.7077  -6.6846
    -6.6234  -6.4799  -6.2812  -5.7049  -5.6351   0.0048   0.0768   0.3018
     0.3647   0.4181   0.4848   5.0577   5.0781   5.2687   5.4728   5.5831
     5.6672   6.0951   6.5326   6.6911   6.8395   7.2153   7.2774   7.3077
     7.3184   7.5089   7.7360   7.8544   8.0298   8.0854   8.1548   8.1688
     8.4948   8.5595   8.7537   8.8431   8.8705   9.1276   9.2447   9.4006
     9.5867   9.8268   9.8509  10.0445  10.1736  10.4863  10.9970  13.8259
    14.1667  15.3031  15.3209  15.9321  16.1414  17.1817  17.2393  17.6268
    17.6692  17.8538  17.9977  18.5931  18.7826  19.3875  19.4057  19.4864
    19.6699  20.4879  20.7676  21.3079  21.9237  22.0326  23.6116  23.9561
    24.0609  24.2288

          k = 0.0000 0.1750 0.0000 (  8527 PWs)   bands (ev):

   -29.9809 -14.7332 -14.6977 -10.7826 -10.3607 -10.0740  -7.6452  -6.7130
    -6.6043  -6.4601  -6.2847  -5.7382  -5.6717   0.0049   0.0878   0.3024
     0.3729   0.4391   0.5068   4.9804   5.0066   5.2959   5.4482   5.5887
     5.6856   5.9300   6.5280   6.5914   6.8248   7.1471   7.1898   7.2535
     7.2968   7.4313   7.7433   7.8514   7.9799   8.0039   8.1393   8.2038
     8.4338   8.6710   8.8048   8.8647   8.8905   9.2087   9.3174   9.3583
     9.5710   9.8324   9.8925  10.0062  10.1236  10.5255  11.1898  13.9870
    14.2531  15.4414  15.4930  15.9125  16.1732  17.2275  17.2940  17.6960
    17.7320  17.8160  18.0136  18.5943  18.8088  19.3668  19.4809  19.5404
    19.7358  20.6221  20.8182  21.3033  21.7982  21.9522  23.6642  24.1161
    24.1361  24.3068

          k = 0.0000 0.2000 0.0000 (  8547 PWs)   bands (ev):

   -29.9794 -14.7200 -14.6849 -10.7579 -10.4249 -10.0720  -7.5796  -6.7484
    -6.5845  -6.4390  -6.2843  -5.7740  -5.7107   0.0062   0.0996   0.3033
     0.3812   0.4621   0.5310   4.8800   4.9482   5.3270   5.4017   5.5953
     5.6747   5.8149   6.4870   6.5205   6.8132   7.0666   7.1024   7.2063
     7.2815   7.3564   7.7419   7.8363   7.8861   7.9749   8.1116   8.2326
     8.3974   8.7893   8.8453   8.8890   8.9057   9.2886   9.2938   9.3917
     9.5690   9.8517   9.9098   9.9836  10.0720  10.5621  11.3811  14.1579
    14.3499  15.5936  15.6841  15.8918  16.2012  17.2079  17.4031  17.7600
    17.7897  17.8300  18.0338  18.5885  18.8403  19.3432  19.5579  19.5734
    19.8414  20.7666  20.8664  21.2823  21.6579  21.9277  23.6366  24.2136
    24.3431  24.3755

          k = 0.0000 0.2250 0.0000 (  8525 PWs)   bands (ev):

   -29.9778 -14.7062 -14.6714 -10.7313 -10.4895 -10.0699  -7.5124  -6.7900
    -6.5653  -6.4169  -6.2800  -5.8114  -5.7507   0.0087   0.1119   0.3046
     0.3893   0.4866   0.5568   4.7791   4.8838   5.3156   5.3619   5.6031
     5.6096   5.7958   6.3832   6.5124   6.8018   6.9813   7.0164   7.1602
     7.2711   7.2852   7.7036   7.8004   7.8389   7.9486   8.0730   8.2557
     8.3889   8.8751   8.9092   8.9135   8.9154   9.2224   9.3636   9.4552
     9.5918   9.8744   9.8853   9.9989  10.0205  10.5935  11.5661  14.3227
    14.4673  15.7549  15.8705  15.8904  16.2253  17.1917  17.4706  17.7748
    17.8900  17.9130  18.0578  18.5811  18.8767  19.3342  19.5609  19.6610
    19.9606  20.9065  20.9205  21.2607  21.5082  21.9494  23.5375  24.3469
    24.4376  24.5743

          k = 0.0000 0.2500 0.0000 (  8526 PWs)   bands (ev):

   -29.9762 -14.6918 -14.6574 -10.7034 -10.5530 -10.0677  -7.4449  -6.8364
    -6.5482  -6.3937  -6.2724  -5.8495  -5.7906   0.0127   0.1243   0.3063
     0.3969   0.5121   0.5836   4.6797   4.8151   5.1887   5.4003   5.5554
     5.6122   5.8105   6.2826   6.5066   6.7901   6.8944   6.9328   7.1132
     7.2183   7.2631   7.6295   7.7428   7.8408   7.9275   8.0253   8.2738
     8.4056   8.8952   8.9084   8.9431   9.0279   9.1582   9.4299   9.4961
     9.6482   9.8470   9.8942   9.9706  10.0289  10.6176  11.7407  14.4563
    14.6255  15.8493  15.9154  16.1074  16.2511  17.1821  17.4574  17.8602
    17.9837  18.0218  18.0852  18.5785  18.9175  19.3364  19.5592  19.7397
    20.0794  20.9353  21.0829  21.2579  21.3550  22.0023  23.3969  24.4897
    24.4930  24.8253

          k = 0.0000 0.2750 0.0000 (  8536 PWs)   bands (ev):

   -29.9746 -14.6774 -14.6433 -10.6748 -10.6139 -10.0656  -7.3782  -6.8857
    -6.5348  -6.3693  -6.2622  -5.8874  -5.8293   0.0181   0.1365   0.3082
     0.4038   0.5380   0.6109   4.5835   4.7442   5.0448   5.4422   5.5217
     5.6225   5.8273   6.1871   6.5061   6.7779   6.8075   6.8525   7.0653
     7.1565   7.2540   7.5551   7.6708   7.8597   7.9098   7.9711   8.2877
     8.4402   8.8837   8.9077   8.9711   9.1146   9.1435   9.4836   9.5236
     9.7250   9.8110   9.9082   9.9234  10.0628  10.6332  11.9016  14.5628
    14.8150  15.8285  16.0488  16.3013  16.3297  17.1773  17.3960  17.9779
    18.0617  18.1150  18.1645  18.5866  18.9623  19.3455  19.5561  19.8054
    20.1910  20.9582  21.2042  21.2522  21.2820  22.0745  23.2394  24.5184
    24.6335  24.9852

          k = 0.0000 0.3000 0.0000 (  8536 PWs)   bands (ev):

   -29.9731 -14.6632 -14.6295 -10.6713 -10.6463 -10.0635  -7.3136  -6.9362
    -6.5264  -6.3433  -6.2505  -5.9241  -5.8660   0.0247   0.1482   0.3104
     0.4097   0.5636   0.6379   4.4920   4.6733   4.9020   5.4871   5.4982
     5.6340   5.8400   6.0981   6.5132   6.7215   6.7652   6.7764   7.0173
     7.1003   7.2398   7.4939   7.5913   7.8850   7.8939   7.9130   8.2981
     8.4835   8.8416   8.9146   8.9986   9.0952   9.2536   9.5212   9.5485
     9.7834   9.8069   9.8797   9.9149  10.0998  10.6398  12.0468  14.6586
    15.0138  15.8088  16.1147  16.4131  16.5513  17.1730  17.3185  18.0920
    18.1202  18.1464  18.3455  18.6076  19.0109  19.3578  19.5527  19.8541
    20.2910  20.9866  21.0620  21.3305  21.4251  22.1589  23.0834  24.4960
    24.7516  24.8959

          k = 0.0000 0.3250 0.0000 (  8544 PWs)   bands (ev):

   -29.9716 -14.6496 -14.6162 -10.7240 -10.6185 -10.0615  -7.2520  -6.9860
    -6.5235  -6.3158  -6.2380  -5.9590  -5.9002   0.0324   0.1590   0.3128
     0.4146   0.5883   0.6640   4.4066   4.6047   4.7691   5.4800   5.5348
     5.6464   5.8469   6.0168   6.5293   6.6372   6.7053   6.7521   6.9704
     7.0502   7.2171   7.4510   7.5091   7.8537   7.8796   7.9134   8.3058
     8.5235   8.7995   8.9179   9.0249   9.0915   9.3539   9.5430   9.5733
     9.7674   9.8402   9.8867   9.9144  10.1399  10.6373  12.1746  14.7494
    15.2096  15.7904  16.1296  16.5677  16.7664  17.1641  17.2379  18.1629
    18.1784  18.1968  18.5547  18.6372  19.0630  19.3713  19.5497  19.8823
    20.3770  20.9345  21.0284  21.4015  21.5957  22.2510  22.9445  24.4071
    24.8267  24.8518

          k = 0.0000 0.3500 0.0000 (  8538 PWs)   bands (ev):

   -29.9702 -14.6369 -14.6040 -10.7713 -10.5923 -10.0596  -7.1945  -7.0333
    -6.5262  -6.2869  -6.2255  -5.9910  -5.9316   0.0407   0.1687   0.3151
     0.4183   0.6114   0.6884   4.3285   4.5404   4.6505   5.4651   5.5847
     5.6594   5.8483   5.9444   6.5540   6.5554   6.6401   6.7391   6.9258
     7.0064   7.1866   7.4259   7.4271   7.7960   7.8672   7.9431   8.3115
     8.5431   8.7804   8.9190   9.0491   9.0947   9.4323   9.5624   9.5977
     9.7618   9.8055   9.9074   9.9608  10.1826  10.6262  12.2846  14.8365
    15.3923  15.7738  16.1297  16.7284  16.9695  17.1460  17.1605  18.1979
    18.2096  18.2915  18.6676  18.7792  19.1185  19.3872  19.5473  19.8866
    20.4475  20.8272  21.0827  21.4992  21.7554  22.3478  22.8390  24.2794
    24.8114  24.8277

          k = 0.0000 0.3750 0.0000 (  8528 PWs)   bands (ev):

   -29.9690 -14.6256 -14.5929 -10.8124 -10.5684 -10.0579  -7.1421  -7.0765
    -6.5333  -6.2573  -6.2137  -6.0195  -5.9607   0.0492   0.1772   0.3174
     0.4209   0.6322   0.7105   4.2589   4.4826   4.5487   5.4530   5.6362
     5.6726   5.8453   5.8817   6.4769   6.5819   6.5862   6.7265   6.8851
     6.9692   7.1528   7.3473   7.4134   7.7425   7.8569   7.9723   8.3155
     8.5313   8.7975   8.9190   9.0707   9.0998   9.4650   9.6083   9.6204
     9.7623   9.7757   9.8950  10.0270  10.2265  10.6074  12.3766  14.9197
    15.5476  15.7593  16.1374  16.8755  17.0882  17.1184  17.1580  18.2311
    18.2389  18.3717  18.6927  19.0038  19.1775  19.4100  19.5457  19.8657
    20.5028  20.7438  21.1416  21.6316  21.8951  22.4466  22.7825  24.1424
    24.7163  24.7209

          k = 0.0000 0.4000 0.0000 (  8510 PWs)   bands (ev):

   -29.9679 -14.6159 -14.5835 -10.8468 -10.5476 -10.0565  -7.1140  -7.0961
    -6.5434  -6.2275  -6.2032  -6.0438  -5.9877   0.0573   0.1843   0.3195
     0.4226   0.6502   0.7296   4.1992   4.4328   4.4650   5.4433   5.6853
     5.6878   5.8295   5.8399   6.4030   6.5317   6.6238   6.7151   6.8495
     6.9387   7.1209   7.2717   7.4082   7.6954   7.8487   7.9992   8.3183
     8.5015   8.8376   8.9185   9.0891   9.1042   9.4632   9.6405   9.6731
     9.7510   9.7657   9.8792  10.0834  10.2702  10.5817  12.4508  14.9980
    15.6550  15.7470  16.1761  16.9725  17.0280  17.1072  17.3234  18.2631
    18.2651  18.4322  18.7107  19.2059  19.2399  19.4494  19.5448  19.8219
    20.5439  20.6844  21.1963  21.8042  22.0134  22.5451  22.7829  24.0116
    24.4812  24.5436

          k = 0.0000 0.4250 0.0000 (  8506 PWs)   bands (ev):

   -29.9671 -14.6080 -14.5758 -10.8740 -10.5305 -10.0554  -7.1447  -7.0577
    -6.5547  -6.1984  -6.1945  -6.0633  -6.0132   0.0644   0.1898   0.3212
     0.4235   0.6648   0.7451   4.1507   4.3925   4.4002   5.4358   5.6966
     5.7377   5.7883   5.8338   6.3359   6.4908   6.6639   6.7053   6.8203
     6.9150   7.0942   7.2027   7.4067   7.6567   7.8427   8.0221   8.3203
     8.4697   8.8833   8.9178   9.1040   9.1065   9.4523   9.6569   9.7278
     9.7317   9.7758   9.8626  10.1288  10.3125  10.5507  12.5078  15.0690
    15.7021  15.7373  16.2606  16.9486  16.9787  17.1769  17.4644  18.2869
    18.2898  18.4698  18.7236  19.3056  19.3479  19.5252  19.5445  19.7607
    20.5727  20.6457  21.2412  22.0126  22.1259  22.6426  22.8304  23.8963
    24.1612  24.2787

          k = 0.0000 0.4500 0.0000 (  8510 PWs)   bands (ev):

   -29.9665 -14.6022 -14.5702 -10.8937 -10.5178 -10.0546  -7.1674  -7.0285
    -6.5649  -6.1881  -6.1711  -6.0776  -6.0371   0.0700   0.1938   0.3226
     0.4239   0.6756   0.7566   4.1147   4.3541   4.3630   5.4305   5.7056
     5.7585   5.7821   5.8283   6.2792   6.4604   6.6977   6.7021   6.7986
     6.8981   7.0743   7.1441   7.4066   7.6279   7.8385   8.0397   8.3215
     8.4438   8.9172   8.9241   9.1060   9.1149   9.4417   9.6691   9.7178
     9.7493   9.8054   9.8477  10.1620  10.3528  10.5161  12.5480  15.1286
    15.7060  15.7302  16.3777  16.8686  16.9425  17.2587  17.5744  18.3033
    18.3075  18.4866  18.7336  19.3745  19.4201  19.5444  19.6265  19.6892
    20.5913  20.6224  21.2742  22.2353  22.2527  22.7441  22.9030  23.8018
    23.8140  23.9651

          k = 0.0000 0.4750 0.0000 (  8522 PWs)   bands (ev):

   -29.9661 -14.5987 -14.5668 -10.9056 -10.5100 -10.0541  -7.1814  -7.0102
    -6.5721  -6.1841  -6.1484  -6.0864  -6.0574   0.0736   0.1962   0.3234
     0.4240   0.6822   0.7636   4.0926   4.3266   4.3449   5.4274   5.7115
     5.7406   5.8146   5.8246   6.2393   6.4416   6.6930   6.7316   6.7853
     6.8879   7.0621   7.1025   7.4070   7.6101   7.8362   8.0508   8.3222
     8.4273   8.9169   8.9529   9.1038   9.1215   9.4345   9.6766   9.7094
     9.7534   9.8340   9.8373  10.1822  10.3902  10.4808  12.5719  15.1698
    15.6947  15.7259  16.5035  16.7695  16.9203  17.3140  17.6457  18.3135
    18.3158  18.4904  18.7409  19.4446  19.4571  19.5445  19.6151  19.7002
    20.6015  20.6103  21.2943  22.3836  22.4178  22.8675  22.9880  23.4992
    23.6409  23.7578

          k = 0.0000 0.5000 0.0000 (  8542 PWs)   bands (ev):

   -29.9660 -14.5975 -14.5656 -10.9096 -10.5074 -10.0539  -7.1861  -7.0039
    -6.5747  -6.1827  -6.1380  -6.0893  -6.0669   0.0748   0.1970   0.3237
     0.4240   0.6844   0.7659   4.0851   4.3174   4.3388   5.4263   5.7135
     5.7346   5.8232   5.8269   6.2244   6.4353   6.6914   6.7432   6.7808
     6.8846   7.0580   7.0869   7.4071   7.6041   7.8354   8.0545   8.3224
     8.4216   8.9167   8.9635   9.1025   9.1237   9.4320   9.6791   9.7066
     9.7541   9.8336   9.8445  10.1889  10.4134  10.4580  12.5798  15.1849
    15.6885  15.7245  16.5916  16.6911  16.9129  17.3333  17.6706  18.3169
    18.3179  18.4902  18.7437  19.4695  19.4937  19.5446  19.5643  19.7256
    20.6047  20.6066  21.3011  22.4477  22.4865  22.9616  23.0552  23.3336
    23.4810  23.7321

          k = 0.0250 0.5000 0.0000 (  8526 PWs)   bands (ev):

   -29.9659 -14.5966 -14.5648 -10.9091 -10.5057 -10.0600  -7.1841  -6.9967
    -6.5725  -6.1864  -6.1369  -6.0876  -6.0669   0.0746   0.1934   0.3166
     0.4163   0.6777   0.7548   4.0818   4.3161   4.3371   5.4243   5.6999
     5.7182   5.8256   5.8516   6.1971   6.4094   6.6914   6.7490   6.7926
     6.8668   7.0552   7.1325   7.4210   7.6097   7.8379   8.0630   8.3100
     8.4322   8.8853   8.9783   9.1044   9.1256   9.4380   9.6772   9.6796
     9.7936   9.8438   9.8734  10.1877  10.4120  10.4748  12.5779  15.1909
    15.6529  15.7108  16.6001  16.7196  16.9090  17.3408  17.6742  18.3220
    18.3294  18.4884  18.7339  19.3409  19.5086  19.5606  19.6617  19.6954
    20.5965  20.6262  21.3120  22.4542  22.4962  22.9672  23.0646  23.3430
    23.4888  23.7385

          k = 0.0500 0.5000 0.0000 (  8536 PWs)   bands (ev):

   -29.9655 -14.5941 -14.5625 -10.9077 -10.5005 -10.0779  -7.1783  -6.9756
    -6.5658  -6.1973  -6.1334  -6.0823  -6.0671   0.0740   0.1824   0.2955
     0.3936   0.6577   0.7218   4.0712   4.3123   4.3321   5.4180   5.6620
     5.6906   5.8325   5.9033   6.1230   6.3384   6.6914   6.7643   6.8235
     6.8439   7.0468   7.2324   7.4578   7.6257   7.8456   8.0885   8.2772
     8.4634   8.8275   8.9967   9.1101   9.1311   9.4561   9.6543   9.6716
     9.8416   9.8521   9.9818  10.1843  10.4076  10.5263  12.5723  15.2089
    15.5656  15.6599  16.6254  16.7975  16.8975  17.3623  17.6857  18.3340
    18.3657  18.4831  18.7073  19.1735  19.5494  19.5496  19.6121  19.7950
    20.5698  20.6836  21.3433  22.4736  22.5238  22.9817  23.0924  23.3693
    23.5115  23.7590

          k = 0.0750 0.5000 0.0000 (  8528 PWs)   bands (ev):

   -29.9649 -14.5899 -14.5586 -10.9055 -10.4920 -10.1068  -7.1686  -6.9413
    -6.5548  -6.2153  -6.1278  -6.0738  -6.0675   0.0727   0.1645   0.2610
     0.3565   0.6254   0.6690   4.0517   4.3073   4.3235   5.4057   5.6077
     5.6663   5.8430   5.9655   6.0175   6.2382   6.6918   6.7838   6.8346
     6.8655   7.0332   7.3525   7.5045   7.6508   7.8585   8.1305   8.2360
     8.5137   8.7684   9.0143   9.1197   9.1402   9.4859   9.6463   9.6623
     9.8379   9.9049  10.1378  10.1790  10.4009  10.6139  12.5630  15.2380
    15.4441  15.5755  16.6670  16.8785  16.9094  17.3950  17.7065  18.3533
    18.4231  18.4746  18.6716  19.0008  19.4908  19.5311  19.6051  19.9121
    20.5370  20.7642  21.3919  22.5053  22.5656  22.9990  23.1376  23.4068
    23.5472  23.7970

          k = 0.1000 0.5000 0.0000 (  8524 PWs)   bands (ev):

   -29.9641 -14.5843 -14.5534 -10.9024 -10.4803 -10.1453  -7.1554  -6.8955
    -6.5395  -6.2399  -6.1202  -6.0680  -6.0620   0.0707   0.1399   0.2142
     0.3062   0.5824   0.5992   4.0210   4.3029   4.3105   5.3834   5.5492
     5.6475   5.8545   5.8940   6.0326   6.1252   6.6935   6.8015   6.8367
     6.9132   7.0148   7.4809   7.5426   7.6827   7.8767   8.1885   8.2048
     8.5806   8.7214   9.0341   9.1335   9.1528   9.5270   9.6494   9.6554
     9.8326   9.9451  10.1726  10.3238  10.3922  10.7352  12.5499  15.2772
    15.2968  15.4704  16.7244  16.8525  17.0421  17.4335  17.7384  18.3785
    18.4630  18.4954  18.6391  18.8300  19.3446  19.5050  19.6583  20.0101
    20.5149  20.8580  21.4534  22.5480  22.6160  23.0114  23.1981  23.4447
    23.5927  23.8555

          k = 0.1250 0.5000 0.0000 (  8526 PWs)   bands (ev):

   -29.9631 -14.5772 -14.5468 -10.8985 -10.4656 -10.1918  -7.1389  -6.8399
    -6.5202  -6.2706  -6.1108  -6.0687  -6.0472   0.0671   0.1092   0.1565
     0.2443   0.5164   0.5303   3.9771   4.2925   4.3002   5.3439   5.5013
     5.6341   5.7619   5.8548   6.0207   6.1011   6.6969   6.8124   6.8456
     6.9637   6.9926   7.5533   7.6124   7.7190   7.9003   8.2029   8.2615
     8.6608   8.6940   9.0582   9.1517   9.1685   9.5786   9.6331   9.6793
     9.8256   9.9724  10.1656  10.3823  10.5278  10.8831  12.5331  15.1288
    15.3251  15.3565  16.7965  16.8201  17.1871  17.4696  17.7829  18.4072
    18.4489  18.5480  18.6248  18.6960  19.1823  19.4713  19.6904  20.0877
    20.5229  20.9596  21.5238  22.6001  22.6688  23.0123  23.2709  23.4668
    23.6443  23.9347

          k = 0.1500 0.5000 0.0000 (  8540 PWs)   bands (ev):

   -29.9619 -14.5688 -14.5391 -10.8940 -10.4481 -10.2443  -7.1194  -6.7764
    -6.4972  -6.3067  -6.0999  -6.0698  -6.0297   0.0604   0.0733   0.0896
     0.1727   0.4257   0.4713   3.9190   4.2684   4.3002   5.2862   5.4715
     5.6252   5.6283   5.8005   5.9732   6.1676   6.7024   6.8132   6.8581
     6.9677   7.0151   7.5281   7.7444   7.7572   7.9299   8.2399   8.3480
     8.6885   8.7499   9.0875   9.1753   9.1871   9.6138   9.6395   9.7155
     9.8171   9.9897  10.1587  10.3720  10.7414  11.0489  12.5125  14.9449
    15.2421  15.3800  16.7820  16.8822  17.3387  17.4941  17.8405  18.4326
    18.4360  18.4424  18.6448  18.7369  19.0099  19.4299  19.6924  20.1454
    20.5721  21.0660  21.5999  22.6591  22.7168  22.9990  23.3522  23.4553
    23.6977  24.0296

          k = 0.1750 0.5000 0.0000 (  8524 PWs)   bands (ev):

   -29.9606 -14.5594 -14.5304 -10.8890 -10.4282 -10.3012  -7.0973  -6.7073
    -6.4708  -6.3475  -6.0878  -6.0711  -6.0098   0.0153   0.0331   0.0468
     0.0934   0.3345   0.4073   3.8470   4.2368   4.3030   5.2202   5.4549
     5.4990   5.6199   5.6922   5.9851   6.2291   6.7097   6.8029   6.8720
     6.9415   7.0656   7.4744   7.7951   7.8752   7.9661   8.3098   8.4464
     8.7038   8.8424   9.1229   9.2059   9.2083   9.5922   9.7063   9.7613
     9.8088  10.0006  10.1523  10.3620  10.9585  11.2248  12.4884  14.7507
    15.1319  15.4404  16.7391  16.9800  17.4932  17.5004  17.9102  18.2843
    18.4146  18.4596  18.7110  18.8321  18.8475  19.3812  19.6737  20.1854
    20.6580  21.1750  21.6787  22.7202  22.7524  22.9724  23.4049  23.4371
    23.7495  24.1314

          k = 0.2000 0.5000 0.0000 (  8530 PWs)   bands (ev):

   -29.9592 -14.5492 -14.5210 -10.8835 -10.4063 -10.3606  -7.0731  -6.6345
    -6.4414  -6.3920  -6.0751  -6.0728  -5.9880  -0.0645  -0.0102   0.0085
     0.0181   0.2546   0.3401   3.7627   4.1965   4.3081   5.1555   5.3787
     5.4452   5.5720   5.6172   6.0164   6.2826   6.7186   6.7825   6.8854
     6.9161   7.1132   7.4058   7.8307   8.0033   8.0094   8.4004   8.5544
     8.7361   8.9313   9.1647   9.2318   9.2464   9.5692   9.7622   9.8128
     9.8160  10.0091  10.1466  10.3531  11.1742  11.4045  12.4610  14.5516
    15.0282  15.5045  16.6926  17.0877  17.4888  17.6472  17.9829  18.1364
    18.3954  18.4724  18.6522  18.8272  18.9715  19.3261  19.6546  20.2122
    20.7670  21.2843  21.7580  22.7676  22.7741  22.9354  23.3349  23.5202
    23.7982  24.2301

          k = 0.2250 0.5000 0.0000 (  8534 PWs)   bands (ev):

   -29.9577 -14.5384 -14.5110 -10.8778 -10.4208 -10.3828  -7.0473  -6.5600
    -6.4392  -6.4094  -6.0747  -6.0620  -5.9646  -0.1477  -0.0797  -0.0552
    -0.0373   0.2004   0.2715   3.6688   4.1467   4.3149   5.0964   5.2713
     5.4395   5.4525   5.6164   6.0560   6.3255   6.7287   6.7540   6.8936
     6.8973   7.1538   7.3350   7.8627   8.0596   8.1276   8.5022   8.6696
     8.7804   9.0082   9.2130   9.2572   9.3001   9.5466   9.7654   9.8626
     9.8777  10.0216  10.1417  10.3460  11.3843  11.5831  12.4305  14.3528
    14.9323  15.5710  16.6436  17.2001  17.4683  17.7965  17.9454  18.1166
    18.3743  18.4700  18.4743  18.9871  19.0993  19.2683  19.6551  20.2331
    20.8861  21.3897  21.8349  22.7559  22.8040  22.8918  23.2825  23.5963
    23.8448  24.3169

          k = 0.2500 0.5000 0.0000 (  8538 PWs)   bands (ev):

   -29.9561 -14.5273 -14.5008 -10.8719 -10.4803 -10.3582  -7.0206  -6.4880
    -6.4858  -6.3753  -6.0769  -6.0493  -5.9403  -0.2321  -0.1692  -0.1180
    -0.1004   0.1735   0.2028   3.5687   4.0872   4.3229   5.0448   5.1793
     5.3375   5.4364   5.6170   6.1010   6.3555   6.7200   6.7396   6.8766
     6.9065   7.1737   7.2809   7.8905   8.1159   8.2472   8.6094   8.7892
     8.8315   9.0674   9.2672   9.2842   9.3658   9.5284   9.7521   9.8975
     9.9547  10.0499  10.1374  10.3422  11.5851  11.7568  12.3975  14.1585
    14.8450  15.6390  16.5935  17.2971  17.4639  17.8113  17.9330  18.2112
    18.2916  18.3612  18.4554  19.1358  19.2220  19.2576  19.6888  20.2593
    21.0065  21.4851  21.9059  22.7144  22.7951  22.8466  23.2815  23.6610
    23.8918  24.3861

          k = 0.2750 0.5000 0.0000 (  8556 PWs)   bands (ev):

   -29.9546 -14.5161 -14.4905 -10.8660 -10.5378 -10.3330  -6.9935  -6.5373
    -6.4136  -6.3397  -6.0791  -6.0373  -5.9156  -0.3159  -0.2577  -0.2106
    -0.1444   0.1352   0.1629   3.4661   4.0195   4.3315   5.0007   5.1036
     5.2291   5.4352   5.6184   6.1499   6.3716   6.6831   6.7506   6.8667
     6.9124   7.1427   7.2770   7.9142   8.1770   8.3613   8.7184   8.8848
     8.9104   9.1091   9.3123   9.3260   9.4230   9.5317   9.7359   9.9085
    10.0291  10.1012  10.1334  10.3437  11.7735  11.9225  12.3629  13.9724
    14.7667  15.7077  16.5438  17.3239  17.5339  17.6800  18.0383  18.1235
    18.3190  18.3394  18.4472  19.1013  19.3274  19.4606  19.7609  20.3067
    21.1222  21.5616  21.9662  22.6448  22.7629  22.8057  23.3324  23.7115
    23.9410  24.4342

          k = 0.3000 0.5000 0.0000 (  8564 PWs)   bands (ev):

   -29.9531 -14.5051 -14.4803 -10.8602 -10.5922 -10.3079  -6.9668  -6.5859
    -6.3450  -6.3032  -6.0812  -6.0267  -5.8911  -0.3969  -0.3433  -0.3045
    -0.1858   0.0699   0.1601   3.3644   3.9462   4.3403   4.9637   5.0436
     5.1286   5.4354   5.6204   6.2017   6.3743   6.6453   6.7612   6.8643
     6.9144   7.0860   7.2999   7.9340   8.2414   8.4695   8.8271   8.9364
     9.0304   9.1373   9.3410   9.3876   9.4335   9.5880   9.7188   9.9015
    10.0925  10.1294  10.1671  10.3545  11.9466  12.0775  12.3278  13.7976
    14.6975  15.7770  16.4960  17.3003  17.5591  17.6584  17.9611  18.0814
    18.3205  18.4303  18.4804  19.0307  19.4013  19.7262  19.8706  20.3930
    21.2294  21.6095  22.0092  22.5538  22.7415  22.7770  23.4132  23.7479
    23.9905  24.4586

          k = 0.3250 0.5000 0.0000 (  8568 PWs)   bands (ev):

   -29.9516 -14.4946 -14.4707 -10.8547 -10.6423 -10.2836  -6.9410  -6.6325
    -6.2820  -6.2665  -6.0826  -6.0180  -5.8674  -0.4735  -0.4240  -0.3940
    -0.2231   0.0078   0.1610   3.2671   3.8707   4.3489   4.9331   4.9973
     5.0372   5.4367   5.6228   6.2552   6.3662   6.6086   6.7703   6.8684
     6.9123   7.0302   7.3248   7.9502   8.3073   8.5714   8.9339   8.9836
     9.1461   9.1559   9.3700   9.4181   9.4494   9.6697   9.7015   9.8838
    10.1252  10.1376  10.2378  10.3792  12.1015  12.2196  12.2942  13.6366
    14.6375  15.8469  16.4515  17.2652  17.4504  17.7958  17.8085  18.0582
    18.3032  18.5405  18.5644  18.9576  19.4356  20.0141  20.0174  20.5287
    21.3253  21.6228  22.0283  22.4501  22.7525  22.7693  23.5071  23.7735
    24.0293  24.4565

          k = 0.3500 0.5000 0.0000 (  8556 PWs)   bands (ev):

   -29.9503 -14.4849 -14.4618 -10.8497 -10.6874 -10.2606  -6.9170  -6.6759
    -6.2302  -6.2265  -6.0824  -6.0117  -5.8451  -0.5437  -0.4980  -0.4760
    -0.2554  -0.0501   0.1638   3.1771   3.7970   4.3570   4.9080   4.9560
     4.9625   5.4387   5.6252   6.3092   6.3507   6.5744   6.7769   6.8767
     6.9059   6.9817   7.3468   7.9633   8.3732   8.6668   9.0245   9.0374
     9.1673   9.2549   9.3968   9.3986   9.5087   9.6846   9.7519   9.8585
    10.1208  10.1619  10.3075  10.4179  12.2233  12.2770  12.3469  13.4918
    14.5864  15.9173  16.4115  17.2262  17.3549  17.6682  17.9339  18.0016
    18.2875  18.6466  18.6703  18.8873  19.4341  20.1868  20.3246  20.7103
    21.4078  21.6049  22.0203  22.3431  22.7895  22.7991  23.6041  23.7947
    23.9952  24.2822

          k = 0.3750 0.5000 0.0000 (  8562 PWs)   bands (ev):

   -29.9491 -14.4762 -14.4538 -10.8451 -10.7268 -10.2397  -6.8953  -6.7150
    -6.1951  -6.1813  -6.0789  -6.0084  -5.8250  -0.6061  -0.5636  -0.5482
    -0.2818  -0.1030   0.1675   3.0968   3.7286   4.3643   4.8857   4.8878
     4.9369   5.4411   5.6276   6.3314   6.3621   6.5439   6.7795   6.8870
     6.8956   6.9433   7.3650   7.9736   8.4368   8.7551   9.0579   9.1368
     9.1735   9.3536   9.3730   9.4263   9.5626   9.6684   9.8268   9.8272
    10.1161  10.1703  10.3724  10.4635  12.2219  12.3663  12.4576  13.3648
    14.5440  15.9878  16.3772  17.1844  17.2733  17.5425  17.9362  18.0658
    18.2737  18.7462  18.7765  18.8235  19.4070  20.3834  20.6377  20.9238
    21.4756  21.5669  21.9886  22.2418  22.8407  22.8709  23.6976  23.7667
    23.8203  24.2416

          k = 0.4000 0.5000 0.0000 (  8568 PWs)   bands (ev):

   -29.9481 -14.4687 -14.4469 -10.8413 -10.7598 -10.2216  -6.8767  -6.7487
    -6.1619  -6.1503  -6.0690  -6.0084  -5.8076  -0.6591  -0.6194  -0.6090
    -0.3017  -0.1500   0.1712   3.0283   3.6686   4.3706   4.8271   4.8719
     4.9185   5.4435   5.6299   6.3116   6.4123   6.5178   6.7770   6.8820
     6.8973   6.9165   7.3794   7.9814   8.4957   8.8360   9.0833   9.1761
     9.2310   9.3470   9.4383   9.4536   9.6091   9.6532   9.7891   9.8921
    10.1114  10.1699  10.4296  10.5081  12.1984  12.4620  12.5504  13.2574
    14.5101  16.0567  16.3493  17.1402  17.2060  17.4342  17.8738  18.1854
    18.2621  18.7692  18.8382  18.8726  19.3643  20.5967  20.9428  21.1508
    21.5213  21.5278  21.9419  22.1542  22.9242  22.9538  23.4669  23.7821
    23.8612  24.2705

          k = 0.4250 0.5000 0.0000 (  8576 PWs)   bands (ev):

   -29.9473 -14.4627 -14.4414 -10.8382 -10.7859 -10.2068  -6.8615  -6.7760
    -6.1343  -6.1314  -6.0525  -6.0119  -5.7934  -0.7017  -0.6642  -0.6574
    -0.3151  -0.1899   0.1746   2.9734   3.6195   4.3756   4.7808   4.8600
     4.9057   5.4457   5.6318   6.2937   6.4574   6.4968   6.7701   6.8665
     6.9008   6.9064   7.3901   7.9871   8.5471   8.9081   9.1009   9.1768
     9.3190   9.3191   9.4739   9.5119   9.6394   9.6464   9.7458   9.9446
    10.1070  10.1653  10.4767  10.5463  12.1788  12.5383  12.6239  13.1710
    14.4842  16.1210  16.3281  17.0957  17.1534  17.3459  17.8207  18.2529
    18.2863  18.7268  18.9221  18.9528  19.3130  20.8153  21.2202  21.3692
    21.4779  21.5657  21.8898  22.0869  23.0341  23.0425  23.1671  23.8533
    23.9291  24.3017

          k = 0.4500 0.5000 0.0000 (  8584 PWs)   bands (ev):

   -29.9467 -14.4583 -14.4373 -10.8359 -10.8048 -10.1958  -6.8503  -6.7961
    -6.1278  -6.1046  -6.0353  -6.0187  -5.7829  -0.7329  -0.6970  -0.6925
    -0.3223  -0.2214   0.1772   2.9332   3.5831   4.3793   4.7474   4.8517
     4.8973   5.4475   5.6334   6.2796   6.4815   6.4943   6.7617   6.8512
     6.8931   6.9134   7.3975   7.9910   8.5874   8.9688   9.1117   9.1768
     9.2904   9.3992   9.4933   9.5643   9.6279   9.6734   9.6980   9.9833
    10.1033  10.1596  10.5117  10.5751  12.1646  12.5939  12.6772  13.1072
    14.4660  16.1755  16.3135  17.0556  17.1157  17.2804  17.7807  18.2462
    18.3624  18.6974  18.9983  19.0132  19.2572  21.0190  21.4430  21.4467
    21.5538  21.5945  21.8396  22.0438  22.8930  23.1004  23.1945  23.9071
    24.0326  24.2876

          k = 0.4750 0.5000 0.0000 (  8572 PWs)   bands (ev):

   -29.9463 -14.4556 -14.4349 -10.8345 -10.8163 -10.1890  -6.8435  -6.8084
    -6.1255  -6.0835  -6.0277  -6.0233  -5.7764  -0.7518  -0.7169  -0.7138
    -0.3247  -0.2425   0.1789   2.9088   3.5608   4.3816   4.7272   4.8468
     4.8925   5.4486   5.6344   6.2706   6.4722   6.5193   6.7552   6.8395
     6.8900   6.9179   7.4018   7.9933   8.6135   9.0123   9.1171   9.1773
     9.2656   9.4671   9.5066   9.5952   9.6212   9.6498   9.6898  10.0072
    10.1006  10.1552  10.5334  10.5930  12.1563  12.6278  12.7094  13.0677
    14.4552  16.2130  16.3051  17.0265  17.0930  17.2399  17.7558  18.2421
    18.4092  18.6811  19.0507  19.0675  19.1992  21.1711  21.4207  21.6033
    21.6212  21.6784  21.7945  22.0244  22.6804  23.1441  23.3516  23.9406
    24.1611  24.3150

          k = 0.5000 0.5000 0.0000 (  8584 PWs)   bands (ev):

   -29.9462 -14.4546 -14.4340 -10.8341 -10.8201 -10.1867  -6.8412  -6.8125
    -6.1249  -6.0740  -6.0331  -6.0191  -5.7743  -0.7582  -0.7236  -0.7210
    -0.3250  -0.2501   0.1795   2.9006   3.5533   4.3823   4.7205   4.8451
     4.8910   5.4490   5.6347   6.2676   6.4691   6.5282   6.7528   6.8350
     6.8892   6.9194   7.4032   7.9940   8.6225   9.0289   9.1187   9.1778
     9.2548   9.5011   9.5115   9.6031   9.6212   9.6224   9.6953  10.0153
    10.0995  10.1536  10.5407  10.5990  12.1535  12.6393  12.7202  13.0543
    14.4516  16.2266  16.3023  17.0158  17.0854  17.2262  17.7474  18.2407
    18.4249  18.6760  19.0634  19.1179  19.1523  21.2278  21.4130  21.6363
    21.6698  21.7225  21.7658  22.0210  22.5940  23.1593  23.4274  23.9520
    24.2361  24.3559

          k = 0.5000 0.4750 0.0000 (  8572 PWs)   bands (ev):

   -29.9463 -14.4555 -14.4349 -10.8302 -10.8206 -10.1890  -6.8370  -6.8148
    -6.1585  -6.0789  -6.0324  -5.9910  -5.7765  -0.7518  -0.7166  -0.7141
    -0.3205  -0.2495   0.1792   2.9090   3.5607   4.3933   4.7260   4.8469
     4.8926   5.4490   5.6352   6.2669   6.4643   6.5313   6.7550   6.8398
     6.8898   6.9243   7.4011   7.9936   8.6211   9.0016   9.1405   9.1758
     9.2496   9.4738   9.4951   9.6018   9.6166   9.6526   9.6864  10.0072
    10.0929  10.1508  10.5342  10.5896  12.1527  12.6285  12.7095  13.0642
    14.4522  16.2242  16.3163  17.0170  17.0895  17.2412  17.7539  18.2280
    18.4022  18.6496  19.1101  19.1303  19.1509  21.0551  21.4238  21.6004
    21.6292  21.6965  21.8551  22.0252  22.5781  23.1800  23.4345  23.9285
    24.2945  24.3468

          k = 0.5000 0.4500 0.0000 (  8584 PWs)   bands (ev):

   -29.9467 -14.4580 -14.4373 -10.8219 -10.8186 -10.1959  -6.8245  -6.8218
    -6.2201  -6.0939  -6.0375  -5.9388  -5.7831  -0.7325  -0.6956  -0.6935
    -0.3070  -0.2478   0.1783   2.9339   3.5827   4.4261   4.7426   4.8520
     4.8976   5.4489   5.6367   6.2650   6.4505   6.5403   6.7617   6.8537
     6.8938   6.9369   7.3948   7.9922   8.6169   8.9475   9.1660   9.1812
     9.2340   9.4021   9.4795   9.5742   9.6243   9.6608   9.7015   9.9836
    10.0731  10.1429  10.5149  10.5623  12.1494  12.5962  12.6774  13.0935
    14.4544  16.2171  16.3580  17.0208  17.1019  17.2856  17.7730  18.1931
    18.3275  18.6151  19.1470  19.1633  19.2096  20.7556  21.3910  21.4555
    21.5174  21.5894  21.9009  22.2354  22.5315  23.2229  23.4583  23.8617
    24.3546  24.4062

          k = 0.5000 0.4250 0.0000 (  8576 PWs)   bands (ev):

   -29.9473 -14.4620 -14.4414 -10.8242 -10.7995 -10.2071  -6.8330  -6.8042
    -6.2881  -6.1184  -6.0465  -5.8856  -5.7938  -0.7006  -0.6610  -0.6597
    -0.2847  -0.2451   0.1768   2.9748   3.6186   4.4803   4.7702   4.8607
     4.9064   5.4488   5.6392   6.2619   6.4288   6.5552   6.7723   6.8756
     6.9039   6.9542   7.3845   7.9899   8.6099   8.8832   9.1546   9.2083
     9.2172   9.3193   9.4574   9.5239   9.6210   9.6393   9.7441   9.9462
    10.0399  10.1318  10.4830  10.5190  12.1416  12.5421  12.6243  13.1418
    14.4594  16.2048  16.4265  17.0280  17.1223  17.3577  17.8026  18.1438
    18.2096  18.6057  19.1414  19.2063  19.3127  20.4416  21.0801  21.2877
    21.5065  21.5586  21.8446  22.4573  22.5540  23.2658  23.4992  23.7613
    24.3776  24.3821

          k = 0.5000 0.4000 0.0000 (  8568 PWs)   bands (ev):

   -29.9481 -14.4675 -14.4469 -10.8273 -10.7732 -10.2221  -6.8483  -6.7766
    -6.3583  -6.1523  -6.0588  -5.8355  -5.8082  -0.6566  -0.6135  -0.6132
    -0.2539  -0.2414   0.1750   3.0309   3.6670   4.5550   4.8091   4.8732
     4.9199   5.4488   5.6426   6.2578   6.4005   6.5756   6.7862   6.9041
     6.9214   6.9741   7.3702   7.9863   8.6000   8.8114   9.1344   9.1727
     9.2296   9.2502   9.4264   9.4609   9.5715   9.6559   9.7724   9.8979
     9.9936  10.1211  10.4391  10.4627  12.1265  12.4665  12.5509  13.2080
    14.4688  16.1866  16.5201  17.0395  17.1501  17.4551  17.8402  18.0714
    18.0885  18.6149  19.1350  19.2450  19.3884  20.1316  20.7491  21.0642
    21.4747  21.5742  21.8166  22.3601  22.8706  23.3047  23.5521  23.6393
    24.3567  24.4095

          k = 0.5000 0.3750 0.0000 (  8562 PWs)   bands (ev):

   -29.9491 -14.4744 -14.4537 -10.8312 -10.7399 -10.2406  -6.8672  -6.7425
    -6.4290  -6.1949  -6.0739  -5.8260  -5.7898  -0.6013  -0.5558  -0.5531
    -0.2368  -0.2149   0.1729   3.1007   3.7260   4.6491   4.8591   4.8898
     4.9391   5.4491   5.6469   6.2529   6.3666   6.6012   6.8023   6.9381
     6.9466   6.9956   7.3523   7.9813   8.5872   8.7326   9.1042   9.1279
     9.1345   9.2767   9.3584   9.4170   9.5188   9.6729   9.7799   9.8419
     9.9347  10.1157  10.3840  10.3974  12.1004  12.3693  12.4582  13.2911
    14.4847  16.1622  16.6369  17.0558  17.1845  17.5747  17.8828  17.9266
    18.0341  18.6358  19.1293  19.2609  19.4085  19.8317  20.4345  20.8943
    21.3409  21.6543  21.8309  22.2438  23.1587  23.3415  23.5079  23.6108
    24.3475  24.4446

          k = 0.5000 0.3500 0.0000 (  8556 PWs)   bands (ev):

   -29.9503 -14.4824 -14.4617 -10.8357 -10.7002 -10.2618  -6.8891  -6.7029
    -6.4992  -6.2455  -6.0915  -5.8466  -5.7489  -0.5359  -0.4881  -0.4816
    -0.2308  -0.1683   0.1709   3.1827   3.7931   4.7613   4.9109   4.9202
     4.9657   5.4497   5.6520   6.2477   6.3278   6.6312   6.8193   6.9770
     6.9771   7.0196   7.3314   7.9745   8.5717   8.6471   9.0348   9.0608
     9.0747   9.2622   9.2926   9.3871   9.4724   9.6897   9.7620   9.7818
     9.8645  10.1199  10.3188  10.3270  12.0601  12.2511  12.3473  13.3897
    14.5093  16.1312  16.7742  17.0767  17.2245  17.7127  17.7813  17.9273
    17.9860  18.6647  19.1262  19.2279  19.3535  19.5447  20.1705  20.8091
    21.1849  21.7406  21.8709  22.1115  23.3780  23.3791  23.3834  23.6696
    24.3878  24.4761

          k = 0.5000 0.3250 0.0000 (  8568 PWs)   bands (ev):

   -29.9516 -14.4913 -14.4706 -10.8407 -10.6546 -10.2851  -6.9133  -6.6590
    -6.5680  -6.3032  -6.1110  -5.8692  -5.7131  -0.4631  -0.4117  -0.3999
    -0.2223  -0.1149   0.1691   3.2746   3.8653   4.8897   4.9372   4.9925
     5.0016   5.4509   5.6579   6.2428   6.2845   6.6650   6.8350   7.0051
     7.0202   7.0523   7.3085   7.9657   8.5535   8.5548   8.9314   9.0012
     9.0145   9.1542   9.2913   9.3585   9.4430   9.7060   9.7200   9.7209
     9.7853  10.1329  10.2452  10.2554  12.0026  12.1125  12.2196  13.5024
    14.5447  16.0935  16.9291  17.1012  17.2689  17.6389  17.8645  17.9486
    17.9710  18.6994  19.1181  19.1282  19.2300  19.2723  19.9880  20.8074
    21.0256  21.8245  21.9261  21.9665  23.2655  23.4150  23.5053  23.7226
    24.4984  24.5172

          k = 0.5000 0.3000 0.0000 (  8564 PWs)   bands (ev):

   -29.9531 -14.5009 -14.4803 -10.8462 -10.6039 -10.3097  -6.9393  -6.6346
    -6.6119  -6.3671  -6.1318  -5.8934  -5.6822  -0.3883  -0.3284  -0.3096
    -0.2070  -0.0556   0.1680   3.3742   3.9390   4.9689   5.0328   5.0490
     5.0757   5.4529   5.6646   6.2371   6.2387   6.7014   6.8468   7.0220
     7.0674   7.1001   7.2855   7.9547   8.4560   8.5331   8.8249   8.9249
     8.9493   9.0388   9.2724   9.3300   9.4314   9.6596   9.6621   9.7020
     9.7217  10.1470  10.1650  10.1891  11.9257  11.9552  12.0768  13.6273
    14.5924  16.0498  17.0974  17.1273  17.3166  17.5021  17.9260  18.0116
[...]
     0.3367   0.3549   0.4186   5.1923   5.1938   5.4348   5.4937   5.5695
     5.5857   6.4732   6.8286   6.8513   7.1397   7.3473   7.4889   7.6377
     7.6802   7.7824   7.8452   7.9097   7.9117   7.9258   8.0182   8.0901
     8.4497   8.7365   8.7703   8.7729   8.7848   9.0314   9.0587   9.0913
     9.5355   9.6967  10.0997  10.1685  10.1706  10.3442  10.3570  13.3246
    13.8908  14.8164  14.8917  15.9954  16.0075  16.8323  17.0562  17.4606
    17.7906  17.9716  17.9971  18.4519  18.7339  19.0393  19.1028  19.6432
    19.6683  20.0401  20.5985  21.2155  22.2514  23.1670  23.1874  23.2230
    23.4825  23.8695

          k = 0.0250 0.0250 0.0000 (  8573 PWs)   bands (ev):

   -29.9862 -14.7795 -14.7430 -10.8678 -10.0930 -10.0879  -7.9043  -6.6850
    -6.6301  -6.5401  -6.2453  -5.6068  -5.5231   0.0109   0.0373   0.3023
     0.3382   0.3638   0.4219   5.1880   5.1948   5.4073   5.4932   5.5687
     5.5955   6.4788   6.8212   6.8253   7.1212   7.3354   7.4680   7.6100
     7.6455   7.7472   7.8475   7.8892   7.9581   7.9698   8.0456   8.0958
     8.4541   8.7165   8.7464   8.7551   8.8185   8.9519   9.0286   9.2008
     9.5810   9.6869  10.0523  10.1673  10.2303  10.3296  10.3585  13.3530
    13.9062  14.8423  14.9186  15.9903  16.0225  16.8572  17.0778  17.4710
    17.7719  17.9795  17.9926  18.4362  18.7510  19.0669  19.1296  19.6201
    19.6574  20.0837  20.5885  21.2115  22.2088  22.9998  23.1851  23.3980
    23.5793  23.8814

          k = 0.0500 0.0500 0.0000 (  8553 PWs)   bands (ev):

   -29.9855 -14.7729 -14.7368 -10.8563 -10.1151 -10.1050  -7.8649  -6.6846
    -6.6348  -6.5281  -6.2572  -5.6252  -5.5360   0.0120   0.0240   0.2937
     0.3309   0.3967   0.4419   5.1736   5.1991   5.3404   5.4955   5.5484
     5.6251   6.4938   6.7372   6.8156   7.0643   7.3037   7.3894   7.5330
     7.6242   7.6965   7.8204   7.8583   8.0440   8.0729   8.0750   8.1089
     8.4720   8.6288   8.7053   8.7701   8.8655   8.8718   8.9910   9.3271
     9.6599   9.6953   9.9927  10.1479  10.2913  10.3422  10.3707  13.4352
    13.9513  14.9194  14.9980  15.9730  16.0667  16.9276  17.1389  17.4990
    17.7177  17.9808  18.0048  18.4018  18.7904  19.1467  19.2005  19.5694
    19.6362  20.1919  20.5636  21.1987  22.1171  22.8395  23.2386  23.4357
    23.9038  23.9125

          k = 0.0750 0.0750 0.0000 (  8563 PWs)   bands (ev):

   -29.9842 -14.7621 -14.7265 -10.8374 -10.1509 -10.1318  -7.8018  -6.6837
    -6.6425  -6.5087  -6.2766  -5.6537  -5.5557   0.0058   0.0145   0.2725
     0.3028   0.4504   0.4862   5.1494   5.2047   5.2503   5.4974   5.5158
     5.6575   6.5042   6.6226   6.7987   6.9718   7.2256   7.3110   7.4179
     7.6308   7.6618   7.7424   7.8737   8.0781   8.1031   8.1265   8.1689
     8.5122   8.5278   8.6714   8.7845   8.8234   8.9379   8.9481   9.4160
     9.6324   9.8431   9.9669  10.0875  10.2648  10.3936  10.4858  13.5646
    14.0220  15.0456  15.1263  15.9419  16.1324  17.0320  17.2278  17.5350
    17.6365  17.9677  18.0494  18.3644  18.8333  19.2726  19.2871  19.5074
    19.6369  20.3392  20.5379  21.1772  22.0345  22.6878  23.3244  23.4383
    23.9480  24.2650

          k = 0.1000 0.1000 0.0000 (  8553 PWs)   bands (ev):

   -29.9826 -14.7475 -14.7126 -10.8113 -10.1971 -10.1676  -7.7179  -6.6822
    -6.6531  -6.4829  -6.3029  -5.6897  -5.5803  -0.0162   0.0187   0.2425
     0.2574   0.5137   0.5447   5.1154   5.1423   5.2097   5.4686   5.5019
     5.6906   6.4176   6.5808   6.7656   6.8632   7.0888   7.2709   7.2742
     7.6358   7.6536   7.6574   7.8939   8.0577   8.0706   8.1567   8.2257
     8.4774   8.5745   8.6748   8.7776   8.8264   8.9148   9.0177   9.4159
     9.6429   9.9848  10.0024  10.0128  10.2627  10.4300  10.6546  13.7328
    14.1120  15.2185  15.2985  15.8955  16.2074  17.1531  17.3211  17.5540
    17.5685  17.9557  18.1187  18.3281  18.8681  19.3500  19.4367  19.4437
    19.6881  20.5194  20.5299  21.1525  21.9867  22.5266  23.4254  23.4336
    23.9647  24.5398

          k = 0.1250 0.1250 0.0000 (  8535 PWs)   bands (ev):

   -29.9805 -14.7294 -14.6954 -10.7787 -10.2508 -10.2110  -7.6168  -6.6798
    -6.6663  -6.4519  -6.3352  -5.7299  -5.6071  -0.0423   0.0241   0.1996
     0.2069   0.5758   0.6047   5.0183   5.0708   5.2117   5.4192   5.4973
     5.7249   6.2514   6.6038   6.6728   6.7962   6.9362   7.0940   7.2451
     7.5705   7.6387   7.6603   7.9136   7.9933   8.0503   8.0916   8.2464
     8.5272   8.6473   8.7252   8.7886   8.8146   8.9013   9.1093   9.3819
     9.6620   9.8781  10.1319  10.1350  10.2790  10.4914  10.8402  13.9315
    14.2132  15.4358  15.5070  15.8347  16.2741  17.2689  17.3561  17.5447
    17.5950  17.9417  18.2170  18.2916  18.8896  19.3130  19.4691  19.6265
    19.7649  20.5545  20.7333  21.1367  21.9625  22.3665  23.4048  23.5362
    23.9569  24.6737

          k = 0.1500 0.1500 0.0000 (  8529 PWs)   bands (ev):

   -29.9781 -14.7084 -14.6754 -10.7401 -10.3089 -10.2605  -7.5021  -6.6817
    -6.6758  -6.4170  -6.3726  -5.7708  -5.6341  -0.0737   0.0282   0.1346
     0.1684   0.6267   0.6543   4.8790   5.0142   5.2085   5.3652   5.4877
     5.7567   6.0778   6.5374   6.6303   6.7474   6.8007   6.8910   7.2173
     7.4858   7.6257   7.6803   7.8909   7.9642   7.9917   8.0327   8.2574
     8.6276   8.6966   8.7808   8.8057   8.8333   8.9130   9.2093   9.3771
     9.6709   9.7743  10.2064  10.3038  10.3160  10.5995  11.0335  14.1524
    14.3153  15.6940  15.6949  15.8116  16.3100  17.3362  17.3551  17.6232
    17.6279  17.9153  18.2557  18.3452  18.8982  19.2255  19.5718  19.8224
    19.8242  20.6142  20.9759  21.1476  21.9159  22.2526  23.3813  23.5451
    24.0026  24.6122

          k = 0.1750 0.1750 0.0000 (  8525 PWs)   bands (ev):

   -29.9754 -14.6851 -14.6533 -10.6964 -10.3692 -10.3146  -7.3772  -6.6987
    -6.6692  -6.4138  -6.3796  -5.8094  -5.6594  -0.1112   0.0153   0.0806
     0.1293   0.6567   0.6820   4.7247   4.9431   5.1987   5.3091   5.4724
     5.7590   5.9383   6.3957   6.6186   6.6462   6.6739   6.7667   7.1905
     7.4058   7.5889   7.6819   7.8266   7.9328   7.9846   8.0304   8.2817
     8.6511   8.7408   8.8417   8.8672   8.8972   8.9505   9.3135   9.4062
     9.6768   9.6886  10.2361  10.3525  10.4960  10.7558  11.2264  14.3803
    14.4108  15.6345  15.9928  16.0442  16.3056  17.3626  17.3954  17.6665
    17.7235  17.8652  18.2253  18.4963  18.8970  19.1382  19.7178  19.8444
    20.0090  20.6952  21.2065  21.2299  21.8060  22.2304  23.3513  23.4332
    24.1568  24.4684

          k = 0.2000 0.2000 0.0000 (  8550 PWs)   bands (ev):

   -29.9725 -14.6602 -14.6297 -10.6485 -10.4295 -10.3715  -7.2454  -6.7167
    -6.6585  -6.4578  -6.3409  -5.8430  -5.6821  -0.1549  -0.0467   0.0714
     0.0906   0.6580   0.6782   4.5561   4.8553   5.1817   5.2525   5.4461
     5.6640   5.9118   6.2519   6.4363   6.5022   6.6643   6.7578   7.1645
     7.3321   7.5348   7.6116   7.7787   7.9763   8.0064   8.0536   8.3268
     8.5910   8.8543   8.8915   8.9319   8.9894   9.0056   9.4157   9.4565
     9.6306   9.6843  10.2531  10.3749  10.7010  10.9381  11.4117  14.4591
    14.6258  15.5300  16.2299  16.3253  16.3800  17.3982  17.4560  17.7212
    17.7858  17.8080  18.2097  18.6561  18.8894  19.0606  19.7700  19.9637
    20.1600  20.7753  21.3287  21.4714  21.6800  22.2670  23.2922  23.3044
    24.3448  24.3594

          k = 0.2250 0.2250 0.0000 (  8528 PWs)   bands (ev):

   -29.9694 -14.6344 -14.6052 -10.5974 -10.4883 -10.4298  -7.1100  -6.7349
    -6.6422  -6.5033  -6.3022  -5.8695  -5.7019  -0.2037  -0.1277   0.0524
     0.0790   0.6260   0.6364   4.3752   4.7495   5.1581   5.1967   5.3847
     5.5541   5.9365   6.1096   6.2138   6.4239   6.6655   6.7595   7.1389
     7.2652   7.4716   7.5050   7.7600   8.0353   8.0886   8.0957   8.3911
     8.5501   8.9199   8.9628   9.0180   9.0672   9.0784   9.5015   9.5173
     9.6155   9.6961  10.2653  10.3879  10.9135  11.1313  11.5832  14.4678
    14.8393  15.4254  16.2374  16.6686  16.6858  17.3813  17.5960  17.6787
    17.7768  17.8822  18.2196  18.8012  18.8783  19.0042  19.6928  20.2175
    20.2626  20.8422  21.4601  21.6416  21.6773  22.3267  23.1774  23.2312
    24.2657  24.5677

          k = 0.2500 0.2500 0.0000 (  8532 PWs)   bands (ev):

   -29.9662 -14.6084 -14.5805 -10.5444 -10.5442 -10.4878  -6.9745  -6.7525
    -6.6180  -6.5491  -6.2645  -5.8877  -5.7194  -0.2559  -0.2121   0.0139
     0.0893   0.5551   0.5603   4.1856   4.6258   5.1290   5.1426   5.2646
     5.5017   5.8906   5.9795   6.0817   6.3792   6.6573   6.7721   7.1123
     7.2054   7.3944   7.4087   7.7724   8.0761   8.1516   8.2353   8.4705
     8.5371   8.9494   9.0632   9.0958   9.1327   9.1624   9.5462   9.5812
     9.6673   9.7142  10.2713  10.3980  11.1299  11.3284  11.7364  14.4140
    14.9699  15.3745  16.2978  16.9562  17.0590  17.3516  17.5619  17.7493
    17.8244  17.9739  18.2610  18.8626  18.8674  19.0251  19.5819  20.3131
    20.5161  20.8963  21.4579  21.8324  21.8387  22.3950  23.1075  23.1329
    24.2270  24.7556

          k = 0.2750 0.2750 0.0000 (  8542 PWs)   bands (ev):

   -29.9631 -14.5829 -14.5562 -10.5963 -10.5443 -10.4905  -6.8430  -6.7690
    -6.5942  -6.5834  -6.2287  -5.8969  -5.7356  -0.3097  -0.2957  -0.0255
     0.0990   0.4383   0.4648   3.9924   4.4869   5.0911   5.0962   5.1228
     5.4789   5.7057   5.8705   6.1063   6.3562   6.6414   6.7947   7.0826
     7.1521   7.2910   7.3537   7.8091   8.1271   8.2226   8.4034   8.5560
     8.5615   8.9805   9.1538   9.1596   9.2017   9.2409   9.5845   9.6410
     9.7426   9.7498  10.2669  10.4109  11.3473  11.5256  11.8676  14.2992
    14.9446  15.4508  16.4400  17.1795  17.2566  17.4017  17.5213  17.8642
    17.8876  18.1310  18.3346  18.8361  18.8675  19.1158  19.4732  20.3187
    20.8397  20.9431  21.4694  21.9358  22.1066  22.4598  23.0246  23.0800
    24.2170  24.9045

          k = 0.3000 0.3000 0.0000 (  8548 PWs)   bands (ev):

   -29.9600 -14.5585 -14.5330 -10.6440 -10.5979 -10.4373  -6.7836  -6.7211
    -6.6373  -6.5347  -6.1954  -5.8971  -5.7518  -0.3759  -0.3641  -0.0664
     0.1035   0.2971   0.3474   3.8010   4.3382   4.9828   5.0432   5.0617
     5.4651   5.5083   5.7864   6.1622   6.3438   6.6205   6.8224   7.0474
     7.1042   7.1983   7.3161   7.8564   8.1881   8.3079   8.5841   8.6095
     8.6616   9.0126   9.2141   9.2336   9.2656   9.3134   9.6449   9.6909
     9.7852   9.8319  10.2503  10.4295  11.5622  11.7202  11.9746  14.1373
    14.8448  15.5829  16.6509  17.1387  17.2985  17.3878  17.7835  17.9151
    17.9938  18.3772  18.4290  18.8195  18.9074  19.1763  19.4187  20.2946
    20.9950  21.1681  21.5339  22.0007  22.3441  22.5241  22.9343  23.0831
    24.2304  25.0027

          k = 0.3250 0.3250 0.0000 (  8548 PWs)   bands (ev):

   -29.9571 -14.5358 -14.5114 -10.6868 -10.6475 -10.3860  -6.7962  -6.6776
    -6.6159  -6.4672  -6.1651  -5.8890  -5.7699  -0.4509  -0.4189  -0.1090
     0.0668   0.1773   0.2188   3.6166   4.1863   4.8520   4.9993   5.0273
     5.3265   5.4557   5.7260   6.2218   6.3344   6.5972   6.8461   7.0078
     7.0603   7.1187   7.3009   7.9000   8.2589   8.4038   8.6969   8.7631
     8.7752   9.0448   9.2631   9.3027   9.3188   9.3795   9.7267   9.7324
     9.8394   9.9092  10.2237  10.4528  11.7712  11.9094  12.0562  13.9482
    14.7414  15.7119  16.8983  16.9863  17.3420  17.3570  17.8562  18.0438
    18.0549  18.4941  18.7074  18.8573  19.0251  19.2341  19.4438  20.2674
    21.0655  21.4686  21.6411  22.0535  22.3791  22.7004  22.8900  23.1139
    24.2705  24.9559

          k = 0.3500 0.3500 0.0000 (  8550 PWs)   bands (ev):

   -29.9544 -14.5152 -14.4918 -10.7244 -10.6923 -10.3381  -6.8066  -6.7140
    -6.5288  -6.3827  -6.1382  -5.8740  -5.7915  -0.5190  -0.4749  -0.1531
    -0.0777   0.0917   0.1563   3.4445   4.0386   4.7337   4.9600   4.9945
     5.1662   5.4497   5.6855   6.2795   6.3242   6.5737   6.8552   6.9703
     7.0190   7.0535   7.3065   7.9333   8.3348   8.5060   8.8104   8.8788
     8.9547   9.0760   9.3035   9.3614   9.3656   9.4384   9.7723   9.8122
     9.8972   9.9899  10.1927  10.4782  11.9696  12.0901  12.1130  13.7512
    14.6527  15.8278  16.8309  17.1144  17.3232  17.3934  17.8266  18.0447
    18.1059  18.5222  18.9063  19.0578  19.2072  19.3601  19.5755  20.2838
    21.1597  21.6692  21.7711  22.1552  22.2942  22.8650  22.9150  23.1848
    24.3400  24.8708

          k = 0.3750 0.3750 0.0000 (  8576 PWs)   bands (ev):

   -29.9520 -14.4972 -14.4747 -10.7566 -10.7312 -10.2949  -6.8152  -6.7458
    -6.4514  -6.2934  -6.1147  -5.8540  -5.8183  -0.5789  -0.5336  -0.2446
    -0.1978  -0.0212   0.1600   3.2892   3.9021   4.6300   4.9258   4.9648
     5.0297   5.4466   5.6604   6.3124   6.3334   6.5518   6.8440   6.9424
     6.9788   7.0037   7.3257   7.9564   8.4090   8.6110   8.9309   8.9937
     9.1049   9.1279   9.3250   9.4107   9.4205   9.4896   9.8147   9.8657
     9.9527  10.0915  10.1680  10.5035  12.1413  12.1582  12.2584  13.5622
    14.5823  15.9309  16.6848  17.1753  17.2807  17.5764  17.7353  18.0141
    18.1095  18.5369  18.9310  19.2651  19.3974  19.4980  19.9291  20.4105
    21.2735  21.7074  21.8828  22.2147  22.3628  22.8614  23.0609  23.3073
    24.4270  24.7676

          k = 0.4000 0.4000 0.0000 (  8570 PWs)   bands (ev):

   -29.9500 -14.4822 -14.4603 -10.7834 -10.7636 -10.2576  -6.8223  -6.7719
    -6.3762  -6.2116  -6.0944  -5.8514  -5.8315  -0.6293  -0.5954  -0.4010
    -0.2411  -0.1105   0.1661   3.1552   3.7826   4.5428   4.8973   4.9180
     4.9392   5.4457   5.6462   6.2997   6.3823   6.5332   6.8193   6.9226
     6.9396   6.9692   7.3497   7.9721   8.4772   8.7157   9.0340   9.1099
     9.1305   9.2827   9.3244   9.4516   9.4914   9.5326   9.8609   9.8666
    10.0027  10.1446  10.2292  10.5268  12.1612  12.3156  12.4096  13.3929
    14.5297  16.0224  16.5554  17.1481  17.2299  17.6001  17.7985  17.9846
    18.1275  18.5541  18.9555  19.2985  19.3781  19.8667  20.3727  20.6738
    21.3962  21.6510  21.9020  22.2179  22.6177  22.8636  23.1395  23.4730
    24.4876  24.6294

          k = 0.4250 0.4250 0.0000 (  8566 PWs)   bands (ev):

   -29.9484 -14.4702 -14.4489 -10.8048 -10.7887 -10.2273  -6.8287  -6.7916
    -6.3010  -6.1457  -6.0758  -5.8918  -5.8095  -0.6695  -0.6567  -0.5346
    -0.2785  -0.1743   0.1717   3.0465   3.6849   4.4734   4.8314   4.8747
     4.9185   5.4463   5.6390   6.2873   6.4243   6.5202   6.7927   6.9019
     6.9066   6.9472   7.3721   7.9825   8.5360   8.8167   9.1028   9.1516
     9.2256   9.3074   9.4080   9.4882   9.5669   9.5698   9.8249   9.9106
    10.0445  10.1454  10.3563  10.5472  12.1637  12.4505  12.5378  13.2517
    14.4928  16.1020  16.4484  17.1032  17.1765  17.4573  17.8486  18.1008
    18.1614  18.5786  18.9877  19.2532  19.3312  20.2480  20.8290  21.0185
    21.5066  21.5670  21.8675  22.2318  22.8661  22.8932  23.1445  23.6538
    24.3809  24.4567

          k = 0.4500 0.4500 0.0000 (  8572 PWs)   bands (ev):

   -29.9472 -14.4616 -14.4407 -10.8207 -10.8064 -10.2050  -6.8346  -6.8042
    -6.2273  -6.1028  -6.0559  -5.9391  -5.7910  -0.7097  -0.6987  -0.6366
    -0.3052  -0.2168   0.1760   2.9663   3.6126   4.4231   4.7697   4.8584
     4.9034   5.4475   5.6359   6.2769   6.4543   6.5162   6.7712   6.8685
     6.8957   6.9325   7.3892   7.9892   8.5822   8.9098   9.1353   9.1669
     9.2823   9.3381   9.4785   9.5390   9.5924   9.6376   9.7571   9.9602
    10.0755  10.1492  10.4626  10.5655  12.1599  12.5528  12.6363  13.1448
    14.4690  16.1668  16.3685  17.0596  17.1293  17.3357  17.8016  18.1995
    18.2727  18.6116  19.0279  19.1758  19.2690  20.6373  21.2524  21.3665
    21.4899  21.5727  21.8662  22.1558  22.8239  23.0649  23.2102  23.8133
    24.2590  24.2920

          k = 0.4750 0.4750 0.0000 (  8568 PWs)   bands (ev):

   -29.9464 -14.4564 -14.4357 -10.8307 -10.8167 -10.1913  -6.8394  -6.8106
    -6.1604  -6.0827  -6.0367  -5.9900  -5.7786  -0.7455  -0.7165  -0.7004
    -0.3203  -0.2418   0.1786   2.9171   3.5683   4.3925   4.7328   4.8485
     4.8941   5.4486   5.6349   6.2700   6.4669   6.5230   6.7575   6.8442
     6.8905   6.9229   7.3997   7.9928   8.6121   8.9887   9.1340   9.1751
     9.2616   9.4423   9.5008   9.5899   9.6104   9.6771   9.6808   9.9998
    10.0938  10.1525  10.5248  10.5860  12.1554  12.6172  12.6988  13.0775
    14.4558  16.2107  16.3190  17.0276  17.0969  17.2546  17.7621  18.2294
    18.3871  18.6523  19.0755  19.0991  19.2023  21.0119  21.4305  21.5895
    21.5950  21.6359  21.8467  22.0345  22.6658  23.1549  23.3560  23.9171
    24.2239  24.2735

          k = 0.5000 0.5000 0.0000 (  8584 PWs)   bands (ev):

   -29.9462 -14.4546 -14.4340 -10.8341 -10.8201 -10.1867  -6.8412  -6.8125
    -6.1249  -6.0740  -6.0331  -6.0191  -5.7743  -0.7582  -0.7236  -0.7210
    -0.3250  -0.2501   0.1795   2.9006   3.5533   4.3823   4.7205   4.8451
     4.8910   5.4490   5.6347   6.2676   6.4691   6.5282   6.7528   6.8350
     6.8892   6.9194   7.4032   7.9940   8.6225   9.0289   9.1187   9.1778
     9.2548   9.5011   9.5115   9.6031   9.6212   9.6224   9.6953  10.0153
    10.0995  10.1536  10.5407  10.5990  12.1535  12.6393  12.7202  13.0543
    14.4516  16.2266  16.3023  17.0158  17.0854  17.2262  17.7474  18.2407
    18.4249  18.6760  19.0634  19.1179  19.1523  21.2278  21.4130  21.6363
    21.6698  21.7225  21.7658  22.0210  22.5940  23.1593  23.4274  23.9520
    24.2361  24.3559

     Writing all to output data dir ./YBCO7/YBCO7.save/
 
     init_run     :      0.55s CPU      0.65s WALL (       1 calls)
     electrons    :    277.82s CPU    282.03s WALL (       1 calls)

     Called by init_run:
     wfcinit      :      0.00s CPU      0.00s WALL (       1 calls)
     wfcinit:atom :      0.07s CPU      0.09s WALL (     101 calls)
     wfcinit:wfcr :      4.59s CPU      4.76s WALL (     101 calls)
     potinit      :      0.00s CPU      0.01s WALL (       1 calls)
     hinit0       :      0.25s CPU      0.25s WALL (       1 calls)

     Called by electrons:
     c_bands      :    277.82s CPU    282.03s WALL (       1 calls)
     v_of_rho     :      0.00s CPU      0.00s WALL (       1 calls)
     v_h          :      0.00s CPU      0.00s WALL (       1 calls)
     v_xc         :      0.00s CPU      0.00s WALL (       1 calls)
     newd         :      0.26s CPU      0.34s WALL (       1 calls)

     Called by c_bands:
     init_us_2    :      0.10s CPU      0.12s WALL (     101 calls)
     init_us_2:cp :      0.10s CPU      0.12s WALL (     101 calls)
     cegterg      :    271.87s CPU    275.77s WALL (     429 calls)

     Called by sum_band:

     Called by *egterg:
     cdiaghg      :     34.88s CPU     35.13s WALL (    7763 calls)
     cegterg:over :     29.89s CPU     30.45s WALL (    7662 calls)
     cegterg:upda :     16.42s CPU     16.53s WALL (    7662 calls)
     cegterg:last :     40.24s CPU     40.28s WALL (    3324 calls)
     h_psi        :    129.23s CPU    132.06s WALL (    8192 calls)
     s_psi        :     16.59s CPU     16.66s WALL (    8192 calls)
     g_psi        :      0.99s CPU      0.99s WALL (    7662 calls)

     Called by h_psi:
     h_psi:calbec :     17.93s CPU     18.26s WALL (    8192 calls)
     vloc_psi     :     92.21s CPU     94.47s WALL (    8192 calls)
     add_vuspsi   :     17.71s CPU     17.90s WALL (    8192 calls)

     General routines
     calbec       :     17.91s CPU     18.25s WALL (    8192 calls)
     fft          :      0.00s CPU      0.01s WALL (       6 calls)
     ffts         :      0.00s CPU      0.00s WALL (       1 calls)
     fftw         :     69.39s CPU     71.07s WALL (  574812 calls)
     interpolate  :      0.00s CPU      0.00s WALL (       1 calls)
     davcio       :      0.21s CPU      0.32s WALL (     202 calls)
 
     Parallel routines
 
     PWSCF        :   4m38.74s CPU   4m43.70s WALL

 
   This run was terminated on:  18:37:22  31Dec2023            

=------------------------------------------------------------------------------=
   JOB DONE.
=------------------------------------------------------------------------------=
