
     Program DOS v.7.2 starts on 31Dec2023 at 17:55: 6 

     This program is part of the open-source Quantum ESPRESSO suite
     for quantum simulation of materials; please cite
         "P. Giannozzi et al., J. Phys.:Condens. Matter 21 395502 (2009);
         "P. Giannozzi et al., J. Phys.:Condens. Matter 29 465901 (2017);
         "P. Giannozzi et al., J. Chem. Phys. 152 154105 (2020);
          URL http://www.quantum-espresso.org", 
     in publications or presentations arising from this work. More details at
     http://www.quantum-espresso.org/quote

     Parallel version (MPI), running on     4 processors

     MPI processes distributed on     1 nodes
     R & G space division:  proc/nbgrp/npool/nimage =       4
     5463 MiB available memory on the printing compute node when the environment starts
 

     Reading xml data from directory:

     ./YBCO7/YBCO7.save/
     file Y.pz-spn-rrkjus_psl.1.0.0.UPF: wavefunction(s)  4S renormalized
     file Ba.pz-spn-rrkjus_psl.1.0.0.UPF: wavefunction(s)  5S 6S renormalized
     file Cu.pz-dn-rrkjus_psl.1.0.0.UPF: wavefunction(s)  3D renormalized

     IMPORTANT: XC functional enforced from input :
     Exchange-correlation= PZ
                           (   1   1   0   0   0   0   0)
     Any further DFT definition will be discarded
     Please, verify this is what you really want

 
     Parallelization info
     --------------------
     sticks:   dense  smooth     PW     G-vecs:    dense   smooth      PW
     Min         544     242     69                57618    17092    2629
     Max         545     244     70                57625    17096    2640
     Sum        2177     973    277               230487    68375   10533
 
     Using Slab Decomposition
 

     Tetrahedra used

 
     DOS          :     11.43s CPU     11.64s WALL

 
   This run was terminated on:  17:55:18  31Dec2023            

=------------------------------------------------------------------------------=
   JOB DONE.
=------------------------------------------------------------------------------=
