
     Program BANDS v.7.2 starts on 26Nov2023 at 13: 7:27 

     This program is part of the open-source Quantum ESPRESSO suite
     for quantum simulation of materials; please cite
         "P. Giannozzi et al., J. Phys.:Condens. Matter 21 395502 (2009);
         "P. Giannozzi et al., J. Phys.:Condens. Matter 29 465901 (2017);
         "P. Giannozzi et al., J. Chem. Phys. 152 154105 (2020);
          URL http://www.quantum-espresso.org", 
     in publications or presentations arising from this work. More details at
     http://www.quantum-espresso.org/quote

     Parallel version (MPI), running on     8 processors

     MPI processes distributed on     1 nodes
     R & G space division:  proc/nbgrp/npool/nimage =       8
     5229 MiB available memory on the printing compute node when the environment starts
 

     Reading xml data from directory:

     ./DFT-D3/m-p/MoS2.DFT-D3.m-p.save/

     IMPORTANT: XC functional enforced from input :
     Exchange-correlation= PBE
                           (   1   4   3   4   0   0   0)
     Any further DFT definition will be discarded
     Please, verify this is what you really want

 
     Parallelization info
     --------------------
     sticks:   dense  smooth     PW     G-vecs:    dense   smooth      PW
     Min          86      43     13                 8680     3067     529
     Max          88      44     14                 8688     3084     544
     Sum         691     349    109                69455    24621    4307
 
     Using Slab Decomposition
 
     Reading collected, re-writing distributed wavefunctions
     high-symmetry point:  0.0000 0.0000 0.0000   x coordinate   0.0000
     high-symmetry point:  0.3333 0.5774 0.0000   x coordinate   0.6667
     high-symmetry point:  0.5000 0.2887 0.0000   x coordinate   1.0000
     high-symmetry point:  0.0000 0.0000 0.0000   x coordinate   1.5774
     high-symmetry point:  0.0000 0.0000 0.1073   x coordinate   1.6847
     high-symmetry point:  0.3333 0.5774 0.1073   x coordinate   1.6847
     high-symmetry point:  0.5000 0.2887 0.1073   x coordinate   2.0180
     high-symmetry point:  0.0000 0.0000 0.1073   x coordinate   2.5953

     Plottable bands (eV) written to file MoS2.DFT-D3.m-p.band.gnu
     Bands written to file MoS2.DFT-D3.m-p.band

 **************************************************************************

                    xk=(   0.00000,   0.00000,   0.00000  )

     point group D_6h(6/mmm)
     there are 12 classes
     the character table:

       E     2C6   2C3   C2    3C2'  3C2'' i     2S3   2S6   s_h   3s_d  3s_v 
A_1g   1.00  1.00  1.00  1.00  1.00  1.00  1.00  1.00  1.00  1.00  1.00  1.00
A_2g   1.00  1.00  1.00  1.00 -1.00 -1.00  1.00  1.00  1.00  1.00 -1.00 -1.00
B_1g   1.00 -1.00  1.00 -1.00  1.00 -1.00  1.00 -1.00  1.00 -1.00  1.00 -1.00
B_2g   1.00 -1.00  1.00 -1.00 -1.00  1.00  1.00 -1.00  1.00 -1.00 -1.00  1.00
E_1g   2.00  1.00 -1.00 -2.00  0.00  0.00  2.00  1.00 -1.00 -2.00  0.00  0.00
E_2g   2.00 -1.00 -1.00  2.00  0.00  0.00  2.00 -1.00 -1.00  2.00  0.00  0.00
A_1u   1.00  1.00  1.00  1.00  1.00  1.00 -1.00 -1.00 -1.00 -1.00 -1.00 -1.00
A_2u   1.00  1.00  1.00  1.00 -1.00 -1.00 -1.00 -1.00 -1.00 -1.00  1.00  1.00
B_1u   1.00 -1.00  1.00 -1.00  1.00 -1.00 -1.00  1.00 -1.00  1.00 -1.00  1.00
B_2u   1.00 -1.00  1.00 -1.00 -1.00  1.00 -1.00  1.00 -1.00  1.00  1.00 -1.00
E_1u   2.00  1.00 -1.00 -2.00  0.00  0.00 -2.00 -1.00  1.00  2.00  0.00  0.00
E_2u   2.00 -1.00 -1.00  2.00  0.00  0.00 -2.00  1.00  1.00 -2.00  0.00  0.00

     the symmetry operations in each class and the name of the first element:

     E        1
                                                                 
     2C6      5    6
                                                                 
     2C3      7    8
                                                                 
     C2       2
                                                                 
     3C2'     4   12   11
                                                                 
     3C2''    3    9   10
                                                                 
     i       13
                                                                 
     2S3     17   18
                                                                 
     2S6     19   20
                                                                 
     s_h     14
                                                                 
     3s_d    16   24   23
                                                                 
     3s_v    15   21   22
                                                                 

     Band symmetry, D_6h(6/mmm) point group:

     e(  1 -  2) =    -53.46148  eV     2   --> A_1g           
     e(  1 -  2) =    -53.46148  eV     2   --> B_2u           
     e(  3 -  4) =    -27.60414  eV     2   --> B_1g           
     e(  3 -  4) =    -27.60414  eV     2   --> A_2u           
     e(  5 -  8) =    -27.40456  eV     4   --> E_2g           
     e(  5 -  8) =    -27.40456  eV     4   --> E_1u           
     e(  9 -  9) =     -6.68991  eV     1   --> A_1g           
     e( 10 - 10) =     -6.67087  eV     1   --> B_2u           
     e( 11 - 11) =     -5.38341  eV     1   --> B_1g           
     e( 12 - 12) =     -5.34836  eV     1   --> A_2u           
     e( 13 - 13) =      1.71662  eV     1   --> A_1g           
     e( 14 - 14) =      1.87959  eV     1   --> B_2u           
     e( 15 - 16) =      4.77605  eV     2   --> E_2g           
     e( 17 - 18) =      4.77656  eV     2   --> E_1u           
     e( 19 - 19) =      5.37700  eV     1   --> B_1g           
     e( 20 - 21) =      5.88998  eV     2   --> E_1g           
     e( 22 - 23) =      5.89197  eV     2   --> E_2u           
     e( 24 - 24) =      5.94835  eV     1   --> A_2u           
     e( 25 - 25) =      7.23566  eV     1   --> A_1g           
     e( 26 - 26) =      7.62368  eV     1   --> B_2u           
     e( 27 - 28) =     10.17058  eV     2   --> E_1g           
     e( 29 - 30) =     10.17236  eV     2   --> E_2u           
     e( 31 - 32) =     10.41677  eV     2   --> E_2g           
     e( 33 - 34) =     10.42682  eV     2   --> E_1u           
     e( 35 - 35) =     13.27015  eV     1   --> A_1g           
     e( 36 - 36) =     13.66496  eV     1   --> B_2u           
     e( 37 - 37) =     14.38833  eV     1   --> A_1g           
     e( 38 - 38) =     14.50584  eV     1   --> B_1g           
     e( 39 - 39) =     16.39170  eV     1   --> A_2u           

 **************************************************************************

 **************************************************************************

                    xk=(   0.01667,   0.02887,   0.00000  )

     point group C_2v (mm2) 
     there are  4 classes
     the character table:

       E     C2    s_v   s_v' 
A_1    1.00  1.00  1.00  1.00
A_2    1.00  1.00 -1.00 -1.00
B_1    1.00 -1.00  1.00 -1.00
B_2    1.00 -1.00 -1.00  1.00

     the symmetry operations in each class and the name of the first element:

     E        1
                                                                 
     C2       2
                                                                 
     s_v      3
                                                                 
     s_v'     4
                                                                 

     Band symmetry, C_2v (mm2)  point group:

     e(  1 -  2) =    -53.46118  eV     2   --> A_1  D_1  S_1  
     e(  1 -  2) =    -53.46118  eV     2   --> B_1  D_3  S_3  
     e(  3 -  4) =    -27.60353  eV     2   --> A_2  D_2  S_2  
     e(  3 -  4) =    -27.60353  eV     2   --> B_2  D_4  S_4  
     e(  5 -  6) =    -27.40768  eV     2   --> A_1  D_1  S_1  
     e(  5 -  6) =    -27.40768  eV     2   --> B_1  D_3  S_3  
     e(  7 -  8) =    -27.40527  eV     2   --> A_1  D_1  S_1  
     e(  7 -  8) =    -27.40527  eV     2   --> B_1  D_3  S_3  
     e(  9 -  9) =     -6.67752  eV     1   --> A_1  D_1  S_1  
     e( 10 - 10) =     -6.65850  eV     1   --> B_1  D_3  S_3  
     e( 11 - 11) =     -5.37831  eV     1   --> A_2  D_2  S_2  
     e( 12 - 12) =     -5.34341  eV     1   --> B_2  D_4  S_4  
     e( 13 - 13) =      1.73104  eV     1   --> A_1  D_1  S_1  
     e( 14 - 14) =      1.89394  eV     1   --> B_1  D_3  S_3  
     e( 15 - 15) =      4.74716  eV     1   --> B_1  D_3  S_3  
     e( 16 - 16) =      4.74767  eV     1   --> A_1  D_1  S_1  
     e( 17 - 17) =      4.78911  eV     1   --> A_1  D_1  S_1  
     e( 18 - 18) =      4.78964  eV     1   --> B_1  D_3  S_3  
     e( 19 - 19) =      5.31142  eV     1   --> A_2  D_2  S_2  
     e( 20 - 20) =      5.70284  eV     1   --> B_2  D_4  S_4  
     e( 21 - 21) =      5.86902  eV     1   --> A_2  D_2  S_2  
     e( 22 - 22) =      5.87107  eV     1   --> B_2  D_4  S_4  
     e( 23 - 23) =      5.94150  eV     1   --> A_2  D_2  S_2  
     e( 24 - 24) =      6.11662  eV     1   --> B_2  D_4  S_4  
     e( 25 - 25) =      7.23345  eV     1   --> A_1  D_1  S_1  
     e( 26 - 26) =      7.61369  eV     1   --> B_1  D_3  S_3  
     e( 27 - 27) =     10.15017  eV     1   --> A_2  D_2  S_2  
     e( 28 - 28) =     10.15207  eV     1   --> B_2  D_4  S_4  
     e( 29 - 29) =     10.19356  eV     1   --> A_2  D_2  S_2  
     e( 30 - 30) =     10.19546  eV     1   --> B_2  D_4  S_4  
     e( 31 - 31) =     10.38196  eV     1   --> A_1  D_1  S_1  
     e( 32 - 32) =     10.38715  eV     1   --> B_1  D_3  S_3  
     e( 33 - 33) =     10.40210  eV     1   --> A_1  D_1  S_1  
     e( 34 - 34) =     10.41216  eV     1   --> B_1  D_3  S_3  
     e( 35 - 35) =     13.32519  eV     1   --> A_1  D_1  S_1  
     e( 36 - 36) =     13.72670  eV     1   --> B_1  D_3  S_3  
     e( 37 - 37) =     14.41816  eV     1   --> A_1  D_1  S_1  
     e( 38 - 38) =     14.51875  eV     1   --> A_2  D_2  S_2  
     e( 39 - 39) =     16.45163  eV     1   --> B_2  D_4  S_4  

 **************************************************************************

 **************************************************************************

                    xk=(   0.03333,   0.05774,   0.00000  )

     Band symmetry, C_2v (mm2)  point group:

     e(  1 -  2) =    -53.46028  eV     2   --> A_1  D_1  S_1  
     e(  1 -  2) =    -53.46028  eV     2   --> B_1  D_3  S_3  
     e(  3 -  4) =    -27.60173  eV     2   --> A_2  D_2  S_2  
     e(  3 -  4) =    -27.60173  eV     2   --> B_2  D_4  S_4  
     e(  5 -  6) =    -27.41689  eV     2   --> A_1  D_1  S_1  
     e(  5 -  6) =    -27.41689  eV     2   --> B_1  D_3  S_3  
     e(  7 -  8) =    -27.40740  eV     2   --> A_1  D_1  S_1  
     e(  7 -  8) =    -27.40740  eV     2   --> B_1  D_3  S_3  
     e(  9 -  9) =     -6.64058  eV     1   --> A_1  D_1  S_1  
     e( 10 - 10) =     -6.62161  eV     1   --> B_1  D_3  S_3  
     e( 11 - 11) =     -5.36310  eV     1   --> A_2  D_2  S_2  
     e( 12 - 12) =     -5.32865  eV     1   --> B_2  D_4  S_4  
     e( 13 - 13) =      1.77369  eV     1   --> A_1  D_1  S_1  
     e( 14 - 14) =      1.93634  eV     1   --> B_1  D_3  S_3  
     e( 15 - 15) =      4.66346  eV     1   --> B_1  D_3  S_3  
     e( 16 - 16) =      4.66391  eV     1   --> A_1  D_1  S_1  
     e( 17 - 17) =      4.82788  eV     1   --> A_1  D_1  S_1  
     e( 18 - 18) =      4.82847  eV     1   --> B_1  D_3  S_3  
     e( 19 - 19) =      5.16219  eV     1   --> A_2  D_2  S_2  
     e( 20 - 20) =      5.47902  eV     1   --> B_2  D_4  S_4  
     e( 21 - 21) =      5.80521  eV     1   --> A_2  D_2  S_2  
     e( 22 - 22) =      5.80756  eV     1   --> B_2  D_4  S_4  
     e( 23 - 23) =      6.04370  eV     1   --> A_2  D_2  S_2  
     e( 24 - 24) =      6.28432  eV     1   --> B_2  D_4  S_4  
     e( 25 - 25) =      7.22538  eV     1   --> A_1  D_1  S_1  
     e( 26 - 26) =      7.58241  eV     1   --> B_1  D_3  S_3  
     e( 27 - 27) =     10.09018  eV     1   --> A_2  D_2  S_2  
     e( 28 - 28) =     10.10292  eV     1   --> B_2  D_4  S_4  
     e( 29 - 29) =     10.25975  eV     1   --> A_1  D_1  S_1  
     e( 30 - 30) =     10.26104  eV     1   --> A_2  D_2  S_2  
     e( 31 - 31) =     10.26378  eV     1   --> B_2  D_4  S_4  
     e( 32 - 32) =     10.30610  eV     1   --> B_1  D_3  S_3  
     e( 33 - 33) =     10.35848  eV     1   --> A_1  D_1  S_1  
     e( 34 - 34) =     10.36879  eV     1   --> B_1  D_3  S_3  
     e( 35 - 35) =     13.47584  eV     1   --> A_1  D_1  S_1  
     e( 36 - 36) =     13.90486  eV     1   --> B_1  D_3  S_3  
     e( 37 - 37) =     14.50984  eV     1   --> A_1  D_1  S_1  
     e( 38 - 38) =     14.55657  eV     1   --> A_2  D_2  S_2  
     e( 39 - 39) =     16.62280  eV     1   --> B_2  D_4  S_4  

 **************************************************************************

 **************************************************************************

                    xk=(   0.05000,   0.08660,   0.00000  )

     Band symmetry, C_2v (mm2)  point group:

     e(  1 -  2) =    -53.45880  eV     2   --> A_1  D_1  S_1  
     e(  1 -  2) =    -53.45880  eV     2   --> B_1  D_3  S_3  
     e(  3 -  4) =    -27.59878  eV     2   --> A_2  D_2  S_2  
     e(  3 -  4) =    -27.59878  eV     2   --> B_2  D_4  S_4  
     e(  5 -  6) =    -27.43178  eV     2   --> A_1  D_1  S_1  
     e(  5 -  6) =    -27.43178  eV     2   --> B_1  D_3  S_3  
     e(  7 -  8) =    -27.41096  eV     2   --> A_1  D_1  S_1  
     e(  7 -  8) =    -27.41096  eV     2   --> B_1  D_3  S_3  
     e(  9 -  9) =     -6.57978  eV     1   --> A_1  D_1  S_1  
     e( 10 - 10) =     -6.56089  eV     1   --> B_1  D_3  S_3  
     e( 11 - 11) =     -5.33807  eV     1   --> A_2  D_2  S_2  
     e( 12 - 12) =     -5.30436  eV     1   --> B_2  D_4  S_4  
     e( 13 - 13) =      1.84256  eV     1   --> A_1  D_1  S_1  
     e( 14 - 14) =      2.00466  eV     1   --> B_1  D_3  S_3  
     e( 15 - 15) =      4.53328  eV     1   --> B_1  D_3  S_3  
     e( 16 - 16) =      4.53351  eV     1   --> A_1  D_1  S_1  
     e( 17 - 17) =      4.89101  eV     1   --> A_1  D_1  S_1  
     e( 18 - 18) =      4.89170  eV     1   --> B_1  D_3  S_3  
     e( 19 - 19) =      4.98184  eV     1   --> A_2  D_2  S_2  
     e( 20 - 20) =      5.25178  eV     1   --> B_2  D_4  S_4  
     e( 21 - 21) =      5.69704  eV     1   --> A_2  D_2  S_2  
     e( 22 - 22) =      5.70021  eV     1   --> B_2  D_4  S_4  
     e( 23 - 23) =      6.14929  eV     1   --> A_2  D_2  S_2  
     e( 24 - 24) =      6.41982  eV     1   --> B_2  D_4  S_4  
     e( 25 - 25) =      7.20733  eV     1   --> A_1  D_1  S_1  
     e( 26 - 26) =      7.52637  eV     1   --> B_1  D_3  S_3  
     e( 27 - 27) =     10.00946  eV     1   --> A_2  D_2  S_2  
     e( 28 - 28) =     10.03961  eV     1   --> B_2  D_4  S_4  
     e( 29 - 29) =     10.08841  eV     1   --> A_1  D_1  S_1  
     e( 30 - 30) =     10.19206  eV     1   --> B_1  D_3  S_3  
     e( 31 - 31) =     10.28847  eV     1   --> A_1  D_1  S_1  
     e( 32 - 32) =     10.29995  eV     1   --> B_1  D_3  S_3  
     e( 33 - 33) =     10.36883  eV     1   --> A_2  D_2  S_2  
     e( 34 - 34) =     10.37429  eV     1   --> B_2  D_4  S_4  
     e( 35 - 35) =     13.68582  eV     1   --> A_1  D_1  S_1  
     e( 36 - 36) =     14.18195  eV     1   --> B_1  D_3  S_3  
     e( 37 - 37) =     14.61693  eV     1   --> A_2  D_2  S_2  
     e( 38 - 38) =     14.67082  eV     1   --> A_1  D_1  S_1  
     e( 39 - 39) =     16.88092  eV     1   --> B_2  D_4  S_4  

 **************************************************************************

 **************************************************************************

                    xk=(   0.06667,   0.11547,   0.00000  )

     Band symmetry, C_2v (mm2)  point group:

     e(  1 -  2) =    -53.45681  eV     2   --> A_1  D_1  S_1  
     e(  1 -  2) =    -53.45681  eV     2   --> B_1  D_3  S_3  
     e(  3 -  4) =    -27.59479  eV     2   --> A_2  D_2  S_2  
     e(  3 -  4) =    -27.59479  eV     2   --> B_2  D_4  S_4  
     e(  5 -  6) =    -27.45172  eV     2   --> A_1  D_1  S_1  
     e(  5 -  6) =    -27.45172  eV     2   --> B_1  D_3  S_3  
     e(  7 -  8) =    -27.41596  eV     2   --> A_1  D_1  S_1  
     e(  7 -  8) =    -27.41596  eV     2   --> B_1  D_3  S_3  
     e(  9 -  9) =     -6.49625  eV     1   --> A_1  D_1  S_1  
     e( 10 - 10) =     -6.47751  eV     1   --> B_1  D_3  S_3  
     e( 11 - 11) =     -5.30369  eV     1   --> A_2  D_2  S_2  
     e( 12 - 12) =     -5.27099  eV     1   --> B_2  D_4  S_4  
     e( 13 - 13) =      1.93419  eV     1   --> A_1  D_1  S_1  
     e( 14 - 14) =      2.09514  eV     1   --> B_1  D_3  S_3  
     e( 15 - 15) =      4.36843  eV     1   --> A_1  D_1  S_1  
     e( 16 - 16) =      4.36872  eV     1   --> B_1  D_3  S_3  
     e( 17 - 17) =      4.79310  eV     1   --> A_2  D_2  S_2  
     e( 18 - 18) =      4.97598  eV     1   --> A_1  D_1  S_1  
     e( 19 - 19) =      4.97685  eV     1   --> B_1  D_3  S_3  
     e( 20 - 20) =      5.02836  eV     1   --> B_2  D_4  S_4  
     e( 21 - 21) =      5.54381  eV     1   --> A_2  D_2  S_2  
     e( 22 - 22) =      5.54860  eV     1   --> B_2  D_4  S_4  
     e( 23 - 23) =      6.24016  eV     1   --> A_2  D_2  S_2  
     e( 24 - 24) =      6.51910  eV     1   --> B_2  D_4  S_4  
     e( 25 - 25) =      7.17294  eV     1   --> A_1  D_1  S_1  
     e( 26 - 26) =      7.44145  eV     1   --> B_1  D_3  S_3  
     e( 27 - 27) =      9.89877  eV     1   --> A_1  D_1  S_1  
     e( 28 - 28) =      9.92830  eV     1   --> A_2  D_2  S_2  
     e( 29 - 29) =      9.98146  eV     1   --> B_2  D_4  S_4  
     e( 30 - 30) =     10.06516  eV     1   --> B_1  D_3  S_3  
     e( 31 - 31) =     10.19683  eV     1   --> A_1  D_1  S_1  
     e( 32 - 32) =     10.21222  eV     1   --> B_1  D_3  S_3  
     e( 33 - 33) =     10.51024  eV     1   --> A_2  D_2  S_2  
     e( 34 - 34) =     10.52166  eV     1   --> B_2  D_4  S_4  
     e( 35 - 35) =     13.91221  eV     1   --> A_1  D_1  S_1  
     e( 36 - 36) =     14.53636  eV     1   --> B_1  D_3  S_3  
     e( 37 - 37) =     14.69655  eV     1   --> A_2  D_2  S_2  
     e( 38 - 38) =     14.91254  eV     1   --> A_1  D_1  S_1  
     e( 39 - 39) =     17.18764  eV     1   --> B_2  D_4  S_4  

 **************************************************************************

 **************************************************************************

                    xk=(   0.08333,   0.14434,   0.00000  )

     Band symmetry, C_2v (mm2)  point group:

     e(  1 -  2) =    -53.45436  eV     2   --> A_1  D_1  S_1  
     e(  1 -  2) =    -53.45436  eV     2   --> B_1  D_3  S_3  
     e(  3 -  4) =    -27.58988  eV     2   --> A_2  D_2  S_2  
     e(  3 -  4) =    -27.58988  eV     2   --> B_2  D_4  S_4  
     e(  5 -  6) =    -27.47584  eV     2   --> A_1  D_1  S_1  
     e(  5 -  6) =    -27.47584  eV     2   --> B_1  D_3  S_3  
     e(  7 -  8) =    -27.42240  eV     2   --> A_1  D_1  S_1  
     e(  7 -  8) =    -27.42240  eV     2   --> B_1  D_3  S_3  
     e(  9 -  9) =     -6.39159  eV     1   --> A_1  D_1  S_1  
     e( 10 - 10) =     -6.37305  eV     1   --> B_1  D_3  S_3  
     e( 11 - 11) =     -5.26060  eV     1   --> A_2  D_2  S_2  
     e( 12 - 12) =     -5.22918  eV     1   --> B_2  D_4  S_4  
     e( 13 - 13) =      2.04321  eV     1   --> A_1  D_1  S_1  
     e( 14 - 14) =      2.20189  eV     1   --> B_1  D_3  S_3  
     e( 15 - 15) =      4.18285  eV     1   --> A_1  D_1  S_1  
     e( 16 - 16) =      4.18431  eV     1   --> B_1  D_3  S_3  
     e( 17 - 17) =      4.60699  eV     1   --> A_2  D_2  S_2  
     e( 18 - 18) =      4.81405  eV     1   --> B_2  D_4  S_4  
     e( 19 - 19) =      5.07851  eV     1   --> A_1  D_1  S_1  
     e( 20 - 20) =      5.07965  eV     1   --> B_1  D_3  S_3  
     e( 21 - 21) =      5.34760  eV     1   --> A_2  D_2  S_2  
     e( 22 - 22) =      5.35511  eV     1   --> B_2  D_4  S_4  
     e( 23 - 23) =      6.31038  eV     1   --> A_2  D_2  S_2  
     e( 24 - 24) =      6.58156  eV     1   --> B_2  D_4  S_4  
     e( 25 - 25) =      7.11515  eV     1   --> A_1  D_1  S_1  
     e( 26 - 26) =      7.32541  eV     1   --> B_1  D_3  S_3  
     e( 27 - 27) =      9.71646  eV     1   --> A_1  D_1  S_1  
     e( 28 - 28) =      9.86399  eV     1   --> A_2  D_2  S_2  
     e( 29 - 29) =      9.93909  eV     1   --> B_1  D_3  S_3  
     e( 30 - 30) =      9.94412  eV     1   --> B_2  D_4  S_4  
     e( 31 - 31) =     10.09162  eV     1   --> A_1  D_1  S_1  
     e( 32 - 32) =     10.11744  eV     1   --> B_1  D_3  S_3  
     e( 33 - 33) =     10.67660  eV     1   --> A_2  D_2  S_2  
     e( 34 - 34) =     10.69812  eV     1   --> B_2  D_4  S_4  
     e( 35 - 35) =     14.12351  eV     1   --> A_1  D_1  S_1  
     e( 36 - 36) =     14.79143  eV     1   --> A_2  D_2  S_2  
     e( 37 - 37) =     14.94611  eV     1   --> B_1  D_3  S_3  
     e( 38 - 38) =     15.23839  eV     1   --> A_1  D_1  S_1  
     e( 39 - 39) =     17.34639  eV     1   --> B_1  D_3  S_3  

 **************************************************************************

 **************************************************************************

                    xk=(   0.10000,   0.17321,   0.00000  )

     Band symmetry, C_2v (mm2)  point group:

     e(  1 -  2) =    -53.45153  eV     2   --> A_1  D_1  S_1  
     e(  1 -  2) =    -53.45153  eV     2   --> B_1  D_3  S_3  
     e(  3 -  4) =    -27.58421  eV     2   --> A_2  D_2  S_2  
     e(  3 -  4) =    -27.58421  eV     2   --> B_2  D_4  S_4  
     e(  5 -  6) =    -27.50312  eV     2   --> A_1  D_1  S_1  
     e(  5 -  6) =    -27.50312  eV     2   --> B_1  D_3  S_3  
     e(  7 -  8) =    -27.43028  eV     2   --> A_1  D_1  S_1  
     e(  7 -  8) =    -27.43028  eV     2   --> B_1  D_3  S_3  
     e(  9 -  9) =     -6.26782  eV     1   --> A_1  D_1  S_1  
     e( 10 - 10) =     -6.24957  eV     1   --> B_1  D_3  S_3  
     e( 11 - 11) =     -5.20965  eV     1   --> A_2  D_2  S_2  
     e( 12 - 12) =     -5.17975  eV     1   --> B_2  D_4  S_4  
     e( 13 - 13) =      2.16165  eV     1   --> A_1  D_1  S_1  
     e( 14 - 14) =      2.31605  eV     1   --> B_1  D_3  S_3  
     e( 15 - 15) =      3.99247  eV     1   --> A_1  D_1  S_1  
     e( 16 - 16) =      3.99638  eV     1   --> B_1  D_3  S_3  
     e( 17 - 17) =      4.42960  eV     1   --> A_2  D_2  S_2  
     e( 18 - 18) =      4.61175  eV     1   --> B_2  D_4  S_4  
     e( 19 - 19) =      5.11471  eV     1   --> A_2  D_2  S_2  
     e( 20 - 20) =      5.12676  eV     1   --> B_2  D_4  S_4  
     e( 21 - 21) =      5.19169  eV     1   --> A_1  D_1  S_1  
     e( 22 - 22) =      5.19319  eV     1   --> B_1  D_3  S_3  
     e( 23 - 23) =      6.35803  eV     1   --> A_2  D_2  S_2  
     e( 24 - 24) =      6.60912  eV     1   --> B_2  D_4  S_4  
     e( 25 - 25) =      7.02939  eV     1   --> A_1  D_1  S_1  
     e( 26 - 26) =      7.18085  eV     1   --> B_1  D_3  S_3  
     e( 27 - 27) =      9.55834  eV     1   --> A_1  D_1  S_1  
     e( 28 - 28) =      9.81710  eV     1   --> B_1  D_3  S_3  
     e( 29 - 29) =      9.82756  eV     1   --> A_2  D_2  S_2  
     e( 30 - 30) =      9.93641  eV     1   --> B_2  D_4  S_4  
     e( 31 - 31) =      9.98519  eV     1   --> A_1  D_1  S_1  
     e( 32 - 32) =     10.03338  eV     1   --> B_1  D_3  S_3  
     e( 33 - 33) =     10.85792  eV     1   --> A_2  D_2  S_2  
     e( 34 - 34) =     10.89388  eV     1   --> B_2  D_4  S_4  
     e( 35 - 35) =     14.31089  eV     1   --> A_1  D_1  S_1  
     e( 36 - 36) =     14.89702  eV     1   --> A_2  D_2  S_2  
     e( 37 - 37) =     15.38854  eV     1   --> B_1  D_3  S_3  
     e( 38 - 38) =     15.63214  eV     1   --> A_1  D_1  S_1  
     e( 39 - 39) =     17.18824  eV     1   --> B_1  D_3  S_3  

 **************************************************************************

 **************************************************************************

                    xk=(   0.11667,   0.20207,   0.00000  )

     Band symmetry, C_2v (mm2)  point group:

     e(  1 -  2) =    -53.44840  eV     2   --> A_1  D_1  S_1  
     e(  1 -  2) =    -53.44840  eV     2   --> B_1  D_3  S_3  
     e(  3 -  4) =    -27.57795  eV     2   --> A_2  D_2  S_2  
     e(  3 -  4) =    -27.57795  eV     2   --> B_2  D_4  S_4  
     e(  5 -  6) =    -27.53240  eV     2   --> A_1  D_1  S_1  
     e(  5 -  6) =    -27.53240  eV     2   --> B_1  D_3  S_3  
     e(  7 -  8) =    -27.43962  eV     2   --> A_1  D_1  S_1  
     e(  7 -  8) =    -27.43962  eV     2   --> B_1  D_3  S_3  
     e(  9 -  9) =     -6.12742  eV     1   --> A_1  D_1  S_1  
     e( 10 - 10) =     -6.10955  eV     1   --> B_1  D_3  S_3  
     e( 11 - 11) =     -5.15184  eV     1   --> A_2  D_2  S_2  
     e( 12 - 12) =     -5.12368  eV     1   --> B_2  D_4  S_4  
     e( 13 - 13) =      2.27773  eV     1   --> A_1  D_1  S_1  
     e( 14 - 14) =      2.42418  eV     1   --> B_1  D_3  S_3  
     e( 15 - 15) =      3.81484  eV     1   --> A_1  D_1  S_1  
     e( 16 - 16) =      3.82389  eV     1   --> B_1  D_3  S_3  
     e( 17 - 17) =      4.26303  eV     1   --> A_2  D_2  S_2  
     e( 18 - 18) =      4.42012  eV     1   --> B_2  D_4  S_4  
     e( 19 - 19) =      4.85656  eV     1   --> A_2  D_2  S_2  
     e( 20 - 20) =      4.87693  eV     1   --> B_2  D_4  S_4  
     e( 21 - 21) =      5.30441  eV     1   --> A_1  D_1  S_1  
     e( 22 - 22) =      5.30623  eV     1   --> B_1  D_3  S_3  
     e( 23 - 23) =      6.38240  eV     1   --> A_2  D_2  S_2  
     e( 24 - 24) =      6.60490  eV     1   --> B_2  D_4  S_4  
     e( 25 - 25) =      6.91808  eV     1   --> A_1  D_1  S_1  
     e( 26 - 26) =      7.01746  eV     1   --> B_1  D_3  S_3  
     e( 27 - 27) =      9.43061  eV     1   --> A_1  D_1  S_1  
     e( 28 - 28) =      9.69828  eV     1   --> B_1  D_3  S_3  
     e( 29 - 29) =      9.82375  eV     1   --> A_2  D_2  S_2  
     e( 30 - 30) =      9.89400  eV     1   --> A_1  D_1  S_1  
     e( 31 - 31) =      9.96046  eV     1   --> B_2  D_4  S_4  
     e( 32 - 32) =      9.97658  eV     1   --> B_1  D_3  S_3  
     e( 33 - 33) =     11.04361  eV     1   --> A_2  D_2  S_2  
     e( 34 - 34) =     11.09788  eV     1   --> B_2  D_4  S_4  
     e( 35 - 35) =     14.47953  eV     1   --> A_1  D_1  S_1  
     e( 36 - 36) =     15.00848  eV     1   --> A_2  D_2  S_2  
     e( 37 - 37) =     15.83572  eV     1   --> B_1  D_3  S_3  
     e( 38 - 38) =     16.06160  eV     1   --> A_1  D_1  S_1  
     e( 39 - 39) =     17.05224  eV     1   --> B_1  D_3  S_3  

 **************************************************************************

 **************************************************************************

                    xk=(   0.13333,   0.23094,   0.00000  )

     Band symmetry, C_2v (mm2)  point group:

     e(  1 -  2) =    -53.44508  eV     2   --> A_1  D_1  S_1  
     e(  1 -  2) =    -53.44508  eV     2   --> B_1  D_3  S_3  
     e(  3 -  4) =    -27.57130  eV     2   --> A_2  D_2  S_2  
     e(  3 -  4) =    -27.57130  eV     2   --> B_2  D_4  S_4  
     e(  5 -  6) =    -27.56251  eV     2   --> A_1  D_1  S_1  
     e(  5 -  6) =    -27.56251  eV     2   --> B_1  D_3  S_3  
     e(  7 -  8) =    -27.45038  eV     2   --> A_1  D_1  S_1  
     e(  7 -  8) =    -27.45038  eV     2   --> B_1  D_3  S_3  
     e(  9 -  9) =     -5.97334  eV     1   --> A_1  D_1  S_1  
     e( 10 - 10) =     -5.95597  eV     1   --> B_1  D_3  S_3  
     e( 11 - 11) =     -5.08836  eV     1   --> A_2  D_2  S_2  
     e( 12 - 12) =     -5.06215  eV     1   --> B_2  D_4  S_4  
     e( 13 - 13) =      2.37442  eV     1   --> A_1  D_1  S_1  
     e( 14 - 14) =      2.50665  eV     1   --> B_1  D_3  S_3  
     e( 15 - 15) =      3.67056  eV     1   --> A_1  D_1  S_1  
     e( 16 - 16) =      3.68966  eV     1   --> B_1  D_3  S_3  
     e( 17 - 17) =      4.10275  eV     1   --> A_2  D_2  S_2  
     e( 18 - 18) =      4.22879  eV     1   --> B_2  D_4  S_4  
     e( 19 - 19) =      4.59174  eV     1   --> A_2  D_2  S_2  
     e( 20 - 20) =      4.62912  eV     1   --> B_2  D_4  S_4  
     e( 21 - 21) =      5.39918  eV     1   --> A_1  D_1  S_1  
     e( 22 - 22) =      5.40111  eV     1   --> B_1  D_3  S_3  
     e( 23 - 23) =      6.38316  eV     1   --> A_2  D_2  S_2  
     e( 24 - 24) =      6.57219  eV     1   --> B_2  D_4  S_4  
     e( 25 - 25) =      6.79459  eV     1   --> A_1  D_1  S_1  
     e( 26 - 26) =      6.85324  eV     1   --> B_1  D_3  S_3  
     e( 27 - 27) =      9.33146  eV     1   --> A_1  D_1  S_1  
     e( 28 - 28) =      9.58988  eV     1   --> B_1  D_3  S_3  
     e( 29 - 29) =      9.83486  eV     1   --> A_1  D_1  S_1  
     e( 30 - 30) =      9.85236  eV     1   --> A_2  D_2  S_2  
     e( 31 - 31) =      9.95105  eV     1   --> B_1  D_3  S_3  
     e( 32 - 32) =     10.01360  eV     1   --> B_2  D_4  S_4  
     e( 33 - 33) =     11.22315  eV     1   --> A_2  D_2  S_2  
     e( 34 - 34) =     11.29862  eV     1   --> B_2  D_4  S_4  
     e( 35 - 35) =     14.63543  eV     1   --> A_1  D_1  S_1  
     e( 36 - 36) =     15.12159  eV     1   --> A_2  D_2  S_2  
     e( 37 - 37) =     16.23040  eV     1   --> B_1  D_3  S_3  
     e( 38 - 38) =     16.46391  eV     1   --> A_1  D_1  S_1  
     e( 39 - 39) =     16.92224  eV     1   --> A_1  D_1  S_1  

 **************************************************************************

 **************************************************************************

                    xk=(   0.15000,   0.25981,   0.00000  )

     Band symmetry, C_2v (mm2)  point group:

     e(  1 -  2) =    -53.44167  eV     2   --> A_1  D_1  S_1  
     e(  1 -  2) =    -53.44167  eV     2   --> B_1  D_3  S_3  
     e(  3 -  4) =    -27.59221  eV     2   --> A_1  D_1  S_1  
     e(  3 -  4) =    -27.59221  eV     2   --> B_1  D_3  S_3  
     e(  5 -  6) =    -27.56445  eV     2   --> A_2  D_2  S_2  
     e(  5 -  6) =    -27.56445  eV     2   --> B_2  D_4  S_4  
     e(  7 -  8) =    -27.46255  eV     2   --> A_1  D_1  S_1  
     e(  7 -  8) =    -27.46255  eV     2   --> B_1  D_3  S_3  
     e(  9 -  9) =     -5.80899  eV     1   --> A_1  D_1  S_1  
     e( 10 - 10) =     -5.79228  eV     1   --> B_1  D_3  S_3  
     e( 11 - 11) =     -5.02056  eV     1   --> A_2  D_2  S_2  
     e( 12 - 12) =     -4.99645  eV     1   --> B_2  D_4  S_4  
     e( 13 - 13) =      2.43115  eV     1   --> A_1  D_1  S_1  
     e( 14 - 14) =      2.54125  eV     1   --> B_1  D_3  S_3  
     e( 15 - 15) =      3.58164  eV     1   --> A_1  D_1  S_1  
     e( 16 - 16) =      3.61694  eV     1   --> B_1  D_3  S_3  
     e( 17 - 17) =      3.93034  eV     1   --> A_2  D_2  S_2  
     e( 18 - 18) =      4.01422  eV     1   --> B_2  D_4  S_4  
     e( 19 - 19) =      4.35222  eV     1   --> A_2  D_2  S_2  
     e( 20 - 20) =      4.41987  eV     1   --> B_2  D_4  S_4  
     e( 21 - 21) =      5.45059  eV     1   --> A_1  D_1  S_1  
     e( 22 - 22) =      5.45223  eV     1   --> B_1  D_3  S_3  
     e( 23 - 23) =      6.36015  eV     1   --> A_2  D_2  S_2  
     e( 24 - 24) =      6.51384  eV     1   --> B_2  D_4  S_4  
     e( 25 - 25) =      6.68371  eV     1   --> A_1  D_1  S_1  
     e( 26 - 26) =      6.71407  eV     1   --> B_1  D_3  S_3  
     e( 27 - 27) =      9.26054  eV     1   --> A_1  D_1  S_1  
     e( 28 - 28) =      9.50793  eV     1   --> B_1  D_3  S_3  
     e( 29 - 29) =      9.81642  eV     1   --> A_1  D_1  S_1  
     e( 30 - 30) =      9.90991  eV     1   --> A_2  D_2  S_2  
     e( 31 - 31) =      9.94936  eV     1   --> B_1  D_3  S_3  
     e( 32 - 32) =     10.09042  eV     1   --> B_2  D_4  S_4  
     e( 33 - 33) =     11.38692  eV     1   --> A_2  D_2  S_2  
     e( 34 - 34) =     11.48532  eV     1   --> B_2  D_4  S_4  
     e( 35 - 35) =     14.78058  eV     1   --> A_1  D_1  S_1  
     e( 36 - 36) =     15.23390  eV     1   --> A_2  D_2  S_2  
     e( 37 - 37) =     16.39861  eV     1   --> B_1  D_3  S_3  
     e( 38 - 38) =     16.54277  eV     1   --> A_1  D_1  S_1  
     e( 39 - 39) =     17.04140  eV     1   -->   ?

 **************************************************************************

 **************************************************************************

                    xk=(   0.16667,   0.28868,   0.00000  )

     Band symmetry, C_2v (mm2)  point group:

     e(  1 -  2) =    -53.43826  eV     2   --> A_1  D_1  S_1  
     e(  1 -  2) =    -53.43826  eV     2   --> B_1  D_3  S_3  
     e(  3 -  4) =    -27.62037  eV     2   --> A_1  D_1  S_1  
     e(  3 -  4) =    -27.62037  eV     2   --> B_1  D_3  S_3  
     e(  5 -  6) =    -27.55760  eV     2   --> A_2  D_2  S_2  
     e(  5 -  6) =    -27.55760  eV     2   --> B_2  D_4  S_4  
     e(  7 -  8) =    -27.47607  eV     2   --> A_1  D_1  S_1  
     e(  7 -  8) =    -27.47607  eV     2   --> B_1  D_3  S_3  
     e(  9 -  9) =     -5.63829  eV     1   --> A_1  D_1  S_1  
     e( 10 - 10) =     -5.62240  eV     1   --> B_1  D_3  S_3  
     e( 11 - 11) =     -4.94996  eV     1   --> A_2  D_2  S_2  
     e( 12 - 12) =     -4.92810  eV     1   --> B_2  D_4  S_4  
     e( 13 - 13) =      2.43522  eV     1   --> A_1  D_1  S_1  
     e( 14 - 14) =      2.51958  eV     1   --> B_1  D_3  S_3  
     e( 15 - 15) =      3.56032  eV     1   --> A_1  D_1  S_1  
     e( 16 - 16) =      3.61315  eV     1   --> B_1  D_3  S_3  
     e( 17 - 17) =      3.71615  eV     1   --> A_2  D_2  S_2  
     e( 18 - 18) =      3.76124  eV     1   --> B_2  D_4  S_4  
     e( 19 - 19) =      4.17976  eV     1   --> A_2  D_2  S_2  
     e( 20 - 20) =      4.27590  eV     1   --> B_2  D_4  S_4  
     e( 21 - 21) =      5.43131  eV     1   --> A_1  D_1  S_1  
     e( 22 - 22) =      5.43226  eV     1   --> B_1  D_3  S_3  
     e( 23 - 23) =      6.31357  eV     1   --> A_2  D_2  S_2  
     e( 24 - 24) =      6.43237  eV     1   --> B_2  D_4  S_4  
     e( 25 - 25) =      6.61376  eV     1   --> A_1  D_1  S_1  
     e( 26 - 26) =      6.62691  eV     1   --> B_1  D_3  S_3  
     e( 27 - 27) =      9.22576  eV     1   --> A_1  D_1  S_1  
     e( 28 - 28) =      9.47010  eV     1   --> B_1  D_3  S_3  
     e( 29 - 29) =      9.83386  eV     1   --> A_1  D_1  S_1  
     e( 30 - 30) =      9.95983  eV     1   --> B_1  D_3  S_3  
     e( 31 - 31) =      9.99072  eV     1   --> A_2  D_2  S_2  
     e( 32 - 32) =     10.18404  eV     1   --> B_2  D_4  S_4  
     e( 33 - 33) =     11.52716  eV     1   --> A_2  D_2  S_2  
     e( 34 - 34) =     11.64912  eV     1   --> B_2  D_4  S_4  
     e( 35 - 35) =     14.91180  eV     1   --> A_1  D_1  S_1  
     e( 36 - 36) =     15.34571  eV     1   --> A_2  D_2  S_2  
     e( 37 - 37) =     16.27638  eV     1   --> B_1  D_3  S_3  
     e( 38 - 38) =     16.35098  eV     1   --> A_1  D_1  S_1  
     e( 39 - 39) =     16.87879  eV     1   --> B_2  D_4  S_4  

 **************************************************************************

 **************************************************************************

                    xk=(   0.18333,   0.31754,   0.00000  )

     Band symmetry, C_2v (mm2)  point group:

     e(  1 -  2) =    -53.43494  eV     2   --> A_1  D_1  S_1  
     e(  1 -  2) =    -53.43494  eV     2   --> B_1  D_3  S_3  
     e(  3 -  4) =    -27.64590  eV     2   --> A_1  D_1  S_1  
     e(  3 -  4) =    -27.64590  eV     2   --> B_1  D_3  S_3  
     e(  5 -  6) =    -27.55095  eV     2   --> A_2  D_2  S_2  
     e(  5 -  6) =    -27.55095  eV     2   --> B_2  D_4  S_4  
     e(  7 -  8) =    -27.49087  eV     2   --> A_1  D_1  S_1  
     e(  7 -  8) =    -27.49087  eV     2   --> B_1  D_3  S_3  
     e(  9 -  9) =     -5.46564  eV     1   --> A_1  D_1  S_1  
     e( 10 - 10) =     -5.45075  eV     1   --> B_1  D_3  S_3  
     e( 11 - 11) =     -4.87820  eV     1   --> A_2  D_2  S_2  
     e( 12 - 12) =     -4.85870  eV     1   --> B_2  D_4  S_4  
     e( 13 - 13) =      2.39659  eV     1   --> A_1  D_1  S_1  
     e( 14 - 14) =      2.45937  eV     1   --> B_1  D_3  S_3  
     e( 15 - 15) =      3.46096  eV     1   --> A_2  D_2  S_2  
     e( 16 - 16) =      3.48593  eV     1   --> B_2  D_4  S_4  
     e( 17 - 17) =      3.59483  eV     1   --> A_1  D_1  S_1  
     e( 18 - 18) =      3.65831  eV     1   --> B_1  D_3  S_3  
     e( 19 - 19) =      4.08385  eV     1   --> A_2  D_2  S_2  
     e( 20 - 20) =      4.19106  eV     1   --> B_2  D_4  S_4  
     e( 21 - 21) =      5.33107  eV     1   --> A_1  D_1  S_1  
     e( 22 - 22) =      5.33182  eV     1   --> B_1  D_3  S_3  
     e( 23 - 23) =      6.24431  eV     1   --> A_2  D_2  S_2  
     e( 24 - 24) =      6.33024  eV     1   --> B_2  D_4  S_4  
     e( 25 - 25) =      6.59758  eV     1   --> A_1  D_1  S_1  
     e( 26 - 26) =      6.60203  eV     1   --> B_1  D_3  S_3  
     e( 27 - 27) =      9.23844  eV     1   --> A_1  D_1  S_1  
     e( 28 - 28) =      9.48943  eV     1   --> B_1  D_3  S_3  
     e( 29 - 29) =      9.87331  eV     1   --> A_1  D_1  S_1  
     e( 30 - 30) =      9.97068  eV     1   --> B_1  D_3  S_3  
     e( 31 - 31) =     10.08739  eV     1   --> A_2  D_2  S_2  
     e( 32 - 32) =     10.28656  eV     1   --> B_2  D_4  S_4  
     e( 33 - 33) =     11.63948  eV     1   --> A_2  D_2  S_2  
     e( 34 - 34) =     11.78460  eV     1   --> B_2  D_4  S_4  
     e( 35 - 35) =     15.01934  eV     1   --> A_1  D_1  S_1  
     e( 36 - 36) =     15.46047  eV     1   --> A_2  D_2  S_2  
     e( 37 - 37) =     16.04197  eV     1   --> B_1  D_3  S_3  
     e( 38 - 38) =     16.12759  eV     1   --> A_1  D_1  S_1  
     e( 39 - 39) =     16.76829  eV     1   --> B_2  D_4  S_4  

 **************************************************************************

 **************************************************************************

                    xk=(   0.20000,   0.34641,   0.00000  )

     Band symmetry, C_2v (mm2)  point group:

     e(  1 -  2) =    -53.43182  eV     2   --> A_1  D_1  S_1  
     e(  1 -  2) =    -53.43182  eV     2   --> B_1  D_3  S_3  
     e(  3 -  4) =    -27.66787  eV     2   --> A_1  D_1  S_1  
     e(  3 -  4) =    -27.66787  eV     2   --> B_1  D_3  S_3  
     e(  5 -  6) =    -27.54468  eV     2   --> A_2  D_2  S_2  
     e(  5 -  6) =    -27.54468  eV     2   --> B_2  D_4  S_4  
     e(  7 -  8) =    -27.50686  eV     2   --> A_1  D_1  S_1  
     e(  7 -  8) =    -27.50686  eV     2   --> B_1  D_3  S_3  
     e(  9 -  9) =     -5.29587  eV     1   --> A_1  D_1  S_1  
     e( 10 - 10) =     -5.28220  eV     1   --> B_1  D_3  S_3  
     e( 11 - 11) =     -4.80712  eV     1   --> A_2  D_2  S_2  
     e( 12 - 12) =     -4.79002  eV     1   --> B_2  D_4  S_4  
     e( 13 - 13) =      2.34124  eV     1   --> A_1  D_1  S_1  
     e( 14 - 14) =      2.38937  eV     1   --> B_1  D_3  S_3  
     e( 15 - 15) =      3.19347  eV     1   --> A_2  D_2  S_2  
     e( 16 - 16) =      3.21015  eV     1   --> B_2  D_4  S_4  
     e( 17 - 17) =      3.65674  eV     1   --> A_1  D_1  S_1  
     e( 18 - 18) =      3.72083  eV     1   --> B_1  D_3  S_3  
     e( 19 - 19) =      4.04390  eV     1   --> A_2  D_2  S_2  
     e( 20 - 20) =      4.15134  eV     1   --> B_2  D_4  S_4  
     e( 21 - 21) =      5.16554  eV     1   --> A_1  D_1  S_1  
     e( 22 - 22) =      5.16807  eV     1   --> B_1  D_3  S_3  
     e( 23 - 23) =      6.15411  eV     1   --> A_2  D_2  S_2  
     e( 24 - 24) =      6.21019  eV     1   --> B_2  D_4  S_4  
     e( 25 - 25) =      6.62562  eV     1   --> A_1  D_1  S_1  
     e( 26 - 26) =      6.62706  eV     1   --> B_1  D_3  S_3  
     e( 27 - 27) =      9.30218  eV     1   --> A_1  D_1  S_1  
     e( 28 - 28) =      9.56683  eV     1   --> B_1  D_3  S_3  
     e( 29 - 29) =      9.92044  eV     1   --> A_1  D_1  S_1  
     e( 30 - 30) =      9.97412  eV     1   --> B_1  D_3  S_3  
     e( 31 - 31) =     10.19065  eV     1   --> A_2  D_2  S_2  
     e( 32 - 32) =     10.38915  eV     1   --> B_2  D_4  S_4  
     e( 33 - 33) =     11.72450  eV     1   --> A_2  D_2  S_2  
     e( 34 - 34) =     11.89114  eV     1   --> B_2  D_4  S_4  
     e( 35 - 35) =     15.08348  eV     1   --> A_1  D_1  S_1  
     e( 36 - 36) =     15.58370  eV     1   --> A_2  D_2  S_2  
     e( 37 - 37) =     15.76868  eV     1   --> B_1  D_3  S_3  
     e( 38 - 38) =     15.91536  eV     1   --> A_1  D_1  S_1  
     e( 39 - 39) =     16.71478  eV     1   --> B_2  D_4  S_4  

 **************************************************************************

 **************************************************************************

                    xk=(   0.21667,   0.37528,   0.00000  )

     Band symmetry, C_2v (mm2)  point group:

     e(  1 -  2) =    -53.42896  eV     2   --> A_1  D_1  S_1  
     e(  1 -  2) =    -53.42896  eV     2   --> B_1  D_3  S_3  
     e(  3 -  4) =    -27.68553  eV     2   --> A_1  D_1  S_1  
     e(  3 -  4) =    -27.68553  eV     2   --> B_1  D_3  S_3  
     e(  5 -  6) =    -27.53893  eV     2   --> A_2  D_2  S_2  
     e(  5 -  6) =    -27.53893  eV     2   --> B_2  D_4  S_4  
     e(  7 -  8) =    -27.52389  eV     2   --> A_1  D_1  S_1  
     e(  7 -  8) =    -27.52389  eV     2   --> B_1  D_3  S_3  
     e(  9 -  9) =     -5.13410  eV     1   --> A_1  D_1  S_1  
     e( 10 - 10) =     -5.12184  eV     1   --> B_1  D_3  S_3  
     e( 11 - 11) =     -4.73861  eV     1   --> A_2  D_2  S_2  
     e( 12 - 12) =     -4.72394  eV     1   --> B_2  D_4  S_4  
     e( 13 - 13) =      2.29394  eV     1   --> A_1  D_1  S_1  
     e( 14 - 14) =      2.33273  eV     1   --> B_1  D_3  S_3  
     e( 15 - 15) =      2.93489  eV     1   --> A_2  D_2  S_2  
     e( 16 - 16) =      2.94811  eV     1   --> B_2  D_4  S_4  
     e( 17 - 17) =      3.71967  eV     1   --> A_1  D_1  S_1  
     e( 18 - 18) =      3.77582  eV     1   --> B_1  D_3  S_3  
     e( 19 - 19) =      4.04494  eV     1   --> A_2  D_2  S_2  
     e( 20 - 20) =      4.14836  eV     1   --> B_2  D_4  S_4  
     e( 21 - 21) =      4.95883  eV     1   --> A_1  D_1  S_1  
     e( 22 - 22) =      4.96593  eV     1   --> B_1  D_3  S_3  
     e( 23 - 23) =      6.04574  eV     1   --> A_2  D_2  S_2  
     e( 24 - 24) =      6.07554  eV     1   --> B_2  D_4  S_4  
     e( 25 - 25) =      6.68460  eV     1   --> A_1  D_1  S_1  
     e( 26 - 26) =      6.68676  eV     1   --> B_1  D_3  S_3  
     e( 27 - 27) =      9.40186  eV     1   --> A_1  D_1  S_1  
     e( 28 - 28) =      9.67441  eV     1   --> B_1  D_3  S_3  
     e( 29 - 29) =      9.97046  eV     1   --> A_1  D_1  S_1  
     e( 30 - 30) =      9.98173  eV     1   --> B_1  D_3  S_3  
     e( 31 - 31) =     10.28940  eV     1   --> A_2  D_2  S_2  
     e( 32 - 32) =     10.48228  eV     1   --> B_2  D_4  S_4  
     e( 33 - 33) =     11.78887  eV     1   --> A_2  D_2  S_2  
     e( 34 - 34) =     11.97337  eV     1   --> B_2  D_4  S_4  
     e( 35 - 35) =     15.07466  eV     1   --> A_1  D_1  S_1  
     e( 36 - 36) =     15.48920  eV     1   --> B_1  D_3  S_3  
     e( 37 - 37) =     15.72159  eV     1   --> A_2  D_2  S_2  
     e( 38 - 38) =     15.74111  eV     1   --> A_1  D_1  S_1  
     e( 39 - 39) =     16.71314  eV     1   --> B_2  D_4  S_4  

 **************************************************************************

 **************************************************************************

                    xk=(   0.23333,   0.40415,   0.00000  )

     Band symmetry, C_2v (mm2)  point group:

     e(  1 -  2) =    -53.42643  eV     2   --> A_1  D_1  S_1  
     e(  1 -  2) =    -53.42643  eV     2   --> B_1  D_3  S_3  
     e(  3 -  4) =    -27.69831  eV     2   --> A_1  D_1  S_1  
     e(  3 -  4) =    -27.69831  eV     2   --> B_1  D_3  S_3  
     e(  5 -  6) =    -27.54180  eV     2   --> A_1  D_1  S_1  
     e(  5 -  6) =    -27.54180  eV     2   --> B_1  D_3  S_3  
     e(  7 -  8) =    -27.53385  eV     2   --> A_2  D_2  S_2  
     e(  7 -  8) =    -27.53385  eV     2   --> B_2  D_4  S_4  
     e(  9 -  9) =     -4.98549  eV     1   --> A_1  D_1  S_1  
     e( 10 - 10) =     -4.97483  eV     1   --> B_1  D_3  S_3  
     e( 11 - 11) =     -4.67464  eV     1   --> A_2  D_2  S_2  
     e( 12 - 12) =     -4.66239  eV     1   --> B_2  D_4  S_4  
     e( 13 - 13) =      2.27189  eV     1   --> A_1  D_1  S_1  
     e( 14 - 14) =      2.30465  eV     1   --> B_1  D_3  S_3  
     e( 15 - 15) =      2.69717  eV     1   --> A_2  D_2  S_2  
     e( 16 - 16) =      2.70901  eV     1   --> B_2  D_4  S_4  
     e( 17 - 17) =      3.76674  eV     1   --> A_1  D_1  S_1  
     e( 18 - 18) =      3.80885  eV     1   --> B_1  D_3  S_3  
     e( 19 - 19) =      4.07907  eV     1   --> A_2  D_2  S_2  
     e( 20 - 20) =      4.17672  eV     1   --> B_2  D_4  S_4  
     e( 21 - 21) =      4.72936  eV     1   --> A_1  D_1  S_1  
     e( 22 - 22) =      4.74371  eV     1   --> B_1  D_3  S_3  
     e( 23 - 23) =      5.92291  eV     1   --> A_2  D_2  S_2  
     e( 24 - 24) =      5.93030  eV     1   --> B_2  D_4  S_4  
     e( 25 - 25) =      6.76906  eV     1   --> A_1  D_1  S_1  
     e( 26 - 26) =      6.77438  eV     1   --> B_1  D_3  S_3  
     e( 27 - 27) =      9.49215  eV     1   --> A_1  D_1  S_1  
     e( 28 - 28) =      9.71596  eV     1   --> B_1  D_3  S_3  
     e( 29 - 29) =     10.04317  eV     1   --> A_1  D_1  S_1  
     e( 30 - 30) =     10.06707  eV     1   --> B_1  D_3  S_3  
     e( 31 - 31) =     10.37143  eV     1   --> A_2  D_2  S_2  
     e( 32 - 32) =     10.55655  eV     1   --> B_2  D_4  S_4  
     e( 33 - 33) =     11.84439  eV     1   --> A_2  D_2  S_2  
     e( 34 - 34) =     12.03986  eV     1   --> B_2  D_4  S_4  
     e( 35 - 35) =     14.97825  eV     1   --> A_1  D_1  S_1  
     e( 36 - 36) =     15.22637  eV     1   --> B_1  D_3  S_3  
     e( 37 - 37) =     15.60766  eV     1   --> A_1  D_1  S_1  
     e( 38 - 38) =     15.87922  eV     1   --> A_2  D_2  S_2  
     e( 39 - 39) =     16.63607  eV     1   --> B_1  D_3  S_3  

 **************************************************************************

 **************************************************************************

                    xk=(   0.25000,   0.43301,   0.00000  )

     Band symmetry, C_2v (mm2)  point group:

     e(  1 -  2) =    -53.42427  eV     2   --> A_1  D_1  S_1  
     e(  1 -  2) =    -53.42427  eV     2   --> B_1  D_3  S_3  
     e(  3 -  4) =    -27.70587  eV     2   --> A_1  D_1  S_1  
     e(  3 -  4) =    -27.70587  eV     2   --> B_1  D_3  S_3  
     e(  5 -  6) =    -27.56037  eV     2   --> A_1  D_1  S_1  
     e(  5 -  6) =    -27.56037  eV     2   --> B_1  D_3  S_3  
     e(  7 -  8) =    -27.52952  eV     2   --> A_2  D_2  S_2  
     e(  7 -  8) =    -27.52952  eV     2   --> B_2  D_4  S_4  
     e(  9 -  9) =     -4.85487  eV     1   --> A_1  D_1  S_1  
     e( 10 - 10) =     -4.84595  eV     1   --> B_1  D_3  S_3  
     e( 11 - 11) =     -4.61716  eV     1   --> A_2  D_2  S_2  
     e( 12 - 12) =     -4.60728  eV     1   --> B_2  D_4  S_4  
     e( 13 - 13) =      2.28607  eV     1   --> A_1  D_1  S_1  
     e( 14 - 14) =      2.31460  eV     1   --> B_1  D_3  S_3  
     e( 15 - 15) =      2.48793  eV     1   --> A_2  D_2  S_2  
     e( 16 - 16) =      2.49935  eV     1   --> B_2  D_4  S_4  
     e( 17 - 17) =      3.78950  eV     1   --> A_1  D_1  S_1  
     e( 18 - 18) =      3.81354  eV     1   --> B_1  D_3  S_3  
     e( 19 - 19) =      4.14058  eV     1   --> A_2  D_2  S_2  
     e( 20 - 20) =      4.23136  eV     1   --> B_2  D_4  S_4  
     e( 21 - 21) =      4.48998  eV     1   --> A_1  D_1  S_1  
     e( 22 - 22) =      4.51399  eV     1   --> B_1  D_3  S_3  
     e( 23 - 23) =      5.77939  eV     1   --> B_2  D_4  S_4  
     e( 24 - 24) =      5.79032  eV     1   --> A_2  D_2  S_2  
     e( 25 - 25) =      6.87719  eV     1   --> A_1  D_1  S_1  
     e( 26 - 26) =      6.88679  eV     1   --> B_1  D_3  S_3  
     e( 27 - 27) =      9.51008  eV     1   --> A_1  D_1  S_1  
     e( 28 - 28) =      9.64302  eV     1   --> B_1  D_3  S_3  
     e( 29 - 29) =     10.17731  eV     1   --> A_1  D_1  S_1  
     e( 30 - 30) =     10.25548  eV     1   --> B_1  D_3  S_3  
     e( 31 - 31) =     10.42615  eV     1   --> A_2  D_2  S_2  
     e( 32 - 32) =     10.60489  eV     1   --> B_2  D_4  S_4  
     e( 33 - 33) =     11.90406  eV     1   --> A_2  D_2  S_2  
     e( 34 - 34) =     12.09961  eV     1   --> B_2  D_4  S_4  
     e( 35 - 35) =     14.82266  eV     1   --> A_1  D_1  S_1  
     e( 36 - 36) =     14.99844  eV     1   --> B_1  D_3  S_3  
     e( 37 - 37) =     15.48390  eV     1   --> A_1  D_1  S_1  
     e( 38 - 38) =     16.05951  eV     1   --> A_2  D_2  S_2  
     e( 39 - 39) =     16.29530  eV     1   --> B_1  D_3  S_3  

 **************************************************************************

 **************************************************************************

                    xk=(   0.26667,   0.46188,   0.00000  )

     Band symmetry, C_2v (mm2)  point group:

     e(  1 -  2) =    -53.42252  eV     2   --> A_1  D_1  S_1  
     e(  1 -  2) =    -53.42252  eV     2   --> B_1  D_3  S_3  
     e(  3 -  4) =    -27.70815  eV     2   --> A_1  D_1  S_1  
     e(  3 -  4) =    -27.70815  eV     2   --> B_1  D_3  S_3  
     e(  5 -  6) =    -27.57933  eV     2   --> A_1  D_1  S_1  
     e(  5 -  6) =    -27.57933  eV     2   --> B_1  D_3  S_3  
     e(  7 -  8) =    -27.52601  eV     2   --> A_2  D_2  S_2  
     e(  7 -  8) =    -27.52601  eV     2   --> B_2  D_4  S_4  
     e(  9 -  9) =     -4.74621  eV     1   --> A_1  D_1  S_1  
     e( 10 - 10) =     -4.73914  eV     1   --> B_1  D_3  S_3  
     e( 11 - 11) =     -4.56799  eV     1   --> A_2  D_2  S_2  
     e( 12 - 12) =     -4.56038  eV     1   --> B_2  D_4  S_4  
     e( 13 - 13) =      2.31244  eV     1   --> A_2  D_2  S_2  
     e( 14 - 14) =      2.32391  eV     1   --> B_2  D_4  S_4  
     e( 15 - 15) =      2.34273  eV     1   --> A_1  D_1  S_1  
     e( 16 - 16) =      2.36780  eV     1   --> B_1  D_3  S_3  
     e( 17 - 17) =      3.78274  eV     1   --> A_1  D_1  S_1  
     e( 18 - 18) =      3.78641  eV     1   --> B_1  D_3  S_3  
     e( 19 - 19) =      4.22347  eV     1   --> A_2  D_2  S_2  
     e( 20 - 20) =      4.25390  eV     1   --> A_1  D_1  S_1  
     e( 21 - 21) =      4.28960  eV     1   --> B_1  D_3  S_3  
     e( 22 - 22) =      4.30602  eV     1   --> B_2  D_4  S_4  
     e( 23 - 23) =      5.62900  eV     1   --> B_2  D_4  S_4  
     e( 24 - 24) =      5.65374  eV     1   --> A_2  D_2  S_2  
     e( 25 - 25) =      7.00384  eV     1   --> A_1  D_1  S_1  
     e( 26 - 26) =      7.01763  eV     1   --> B_1  D_3  S_3  
     e( 27 - 27) =      9.44204  eV     1   --> A_1  D_1  S_1  
     e( 28 - 28) =      9.51100  eV     1   --> B_1  D_3  S_3  
     e( 29 - 29) =     10.36958  eV     1   --> A_1  D_1  S_1  
     e( 30 - 30) =     10.44893  eV     1   --> A_2  D_2  S_2  
     e( 31 - 31) =     10.47335  eV     1   --> B_1  D_3  S_3  
     e( 32 - 32) =     10.62523  eV     1   --> B_2  D_4  S_4  
     e( 33 - 33) =     11.97600  eV     1   --> A_2  D_2  S_2  
     e( 34 - 34) =     12.15757  eV     1   --> B_2  D_4  S_4  
     e( 35 - 35) =     14.64975  eV     1   --> A_1  D_1  S_1  
     e( 36 - 36) =     14.82233  eV     1   --> B_1  D_3  S_3  
     e( 37 - 37) =     15.35288  eV     1   --> A_1  D_1  S_1  
     e( 38 - 38) =     15.98486  eV     1   --> B_1  D_3  S_3  
     e( 39 - 39) =     16.26233  eV     1   --> A_2  D_2  S_2  

 **************************************************************************

 **************************************************************************

                    xk=(   0.28333,   0.49075,   0.00000  )

     Band symmetry, C_2v (mm2)  point group:

     e(  1 -  2) =    -53.42120  eV     2   --> A_1  D_1  S_1  
     e(  1 -  2) =    -53.42120  eV     2   --> B_1  D_3  S_3  
     e(  3 -  4) =    -27.70537  eV     2   --> A_1  D_1  S_1  
     e(  3 -  4) =    -27.70537  eV     2   --> B_1  D_3  S_3  
     e(  5 -  6) =    -27.59827  eV     2   --> A_1  D_1  S_1  
     e(  5 -  6) =    -27.59827  eV     2   --> B_1  D_3  S_3  
     e(  7 -  8) =    -27.52335  eV     2   --> A_2  D_2  S_2  
     e(  7 -  8) =    -27.52335  eV     2   --> B_2  D_4  S_4  
     e(  9 -  9) =     -4.66218  eV     1   --> A_1  D_1  S_1  
     e( 10 - 10) =     -4.65700  eV     1   --> B_1  D_3  S_3  
     e( 11 - 11) =     -4.52866  eV     1   --> A_2  D_2  S_2  
     e( 12 - 12) =     -4.52320  eV     1   --> B_2  D_4  S_4  
     e( 13 - 13) =      2.17436  eV     1   --> A_2  D_2  S_2  
     e( 14 - 14) =      2.18615  eV     1   --> B_2  D_4  S_4  
     e( 15 - 15) =      2.44357  eV     1   --> A_1  D_1  S_1  
     e( 16 - 16) =      2.46511  eV     1   --> B_1  D_3  S_3  
     e( 17 - 17) =      3.71799  eV     1   --> B_1  D_3  S_3  
     e( 18 - 18) =      3.73127  eV     1   --> A_1  D_1  S_1  
     e( 19 - 19) =      4.04775  eV     1   --> A_1  D_1  S_1  
     e( 20 - 20) =      4.09263  eV     1   --> B_1  D_3  S_3  
     e( 21 - 21) =      4.31977  eV     1   --> A_2  D_2  S_2  
     e( 22 - 22) =      4.39172  eV     1   --> B_2  D_4  S_4  
     e( 23 - 23) =      5.48749  eV     1   --> B_2  D_4  S_4  
     e( 24 - 24) =      5.52055  eV     1   --> A_2  D_2  S_2  
     e( 25 - 25) =      7.13733  eV     1   --> A_1  D_1  S_1  
     e( 26 - 26) =      7.15439  eV     1   --> B_1  D_3  S_3  
     e( 27 - 27) =      9.32330  eV     1   --> A_1  D_1  S_1  
     e( 28 - 28) =      9.35614  eV     1   --> B_1  D_3  S_3  
     e( 29 - 29) =     10.44395  eV     1   --> A_2  D_2  S_2  
     e( 30 - 30) =     10.57728  eV     1   --> A_1  D_1  S_1  
     e( 31 - 31) =     10.62190  eV     1   --> B_2  D_4  S_4  
     e( 32 - 32) =     10.67455  eV     1   --> B_1  D_3  S_3  
     e( 33 - 33) =     12.05916  eV     1   --> A_2  D_2  S_2  
     e( 34 - 34) =     12.21197  eV     1   --> B_2  D_4  S_4  
     e( 35 - 35) =     14.49337  eV     1   --> A_1  D_1  S_1  
     e( 36 - 36) =     14.71545  eV     1   --> B_1  D_3  S_3  
     e( 37 - 37) =     15.22280  eV     1   --> A_1  D_1  S_1  
     e( 38 - 38) =     15.70279  eV     1   --> B_1  D_3  S_3  
     e( 39 - 39) =     16.48297  eV     1   --> A_2  D_2  S_2  

 **************************************************************************

 **************************************************************************

                    xk=(   0.30000,   0.51962,   0.00000  )

     Band symmetry, C_2v (mm2)  point group:

     e(  1 -  2) =    -53.42028  eV     2   --> A_1  D_1  S_1  
     e(  1 -  2) =    -53.42028  eV     2   --> B_1  D_3  S_3  
     e(  3 -  4) =    -27.69827  eV     2   --> A_1  D_1  S_1  
     e(  3 -  4) =    -27.69827  eV     2   --> B_1  D_3  S_3  
     e(  5 -  6) =    -27.61652  eV     2   --> A_1  D_1  S_1  
     e(  5 -  6) =    -27.61652  eV     2   --> B_1  D_3  S_3  
     e(  7 -  8) =    -27.52152  eV     2   --> A_2  D_2  S_2  
     e(  7 -  8) =    -27.52152  eV     2   --> B_2  D_4  S_4  
     e(  9 -  9) =     -4.60380  eV     1   --> A_1  D_1  S_1  
     e( 10 - 10) =     -4.60046  eV     1   --> B_1  D_3  S_3  
     e( 11 - 11) =     -4.50022  eV     1   --> A_2  D_2  S_2  
     e( 12 - 12) =     -4.49676  eV     1   --> B_2  D_4  S_4  
     e( 13 - 13) =      2.07591  eV     1   --> A_2  D_2  S_2  
     e( 14 - 14) =      2.08811  eV     1   --> B_2  D_4  S_4  
     e( 15 - 15) =      2.58356  eV     1   --> A_1  D_1  S_1  
     e( 16 - 16) =      2.60035  eV     1   --> B_1  D_3  S_3  
     e( 17 - 17) =      3.59313  eV     1   --> B_1  D_3  S_3  
     e( 18 - 18) =      3.60173  eV     1   --> A_1  D_1  S_1  
     e( 19 - 19) =      3.92061  eV     1   --> A_1  D_1  S_1  
     e( 20 - 20) =      3.95499  eV     1   --> B_1  D_3  S_3  
     e( 21 - 21) =      4.41783  eV     1   --> A_2  D_2  S_2  
     e( 22 - 22) =      4.47437  eV     1   --> B_2  D_4  S_4  
     e( 23 - 23) =      5.36747  eV     1   --> B_2  D_4  S_4  
     e( 24 - 24) =      5.40103  eV     1   --> A_2  D_2  S_2  
     e( 25 - 25) =      7.25889  eV     1   --> A_1  D_1  S_1  
     e( 26 - 26) =      7.27789  eV     1   --> B_1  D_3  S_3  
     e( 27 - 27) =      9.19551  eV     1   --> A_1  D_1  S_1  
     e( 28 - 28) =      9.20920  eV     1   --> B_1  D_3  S_3  
     e( 29 - 29) =     10.42263  eV     1   --> A_2  D_2  S_2  
     e( 30 - 30) =     10.60448  eV     1   --> B_2  D_4  S_4  
     e( 31 - 31) =     10.75994  eV     1   --> A_1  D_1  S_1  
     e( 32 - 32) =     10.82936  eV     1   --> B_1  D_3  S_3  
     e( 33 - 33) =     12.14410  eV     1   --> A_2  D_2  S_2  
     e( 34 - 34) =     12.25498  eV     1   --> B_2  D_4  S_4  
     e( 35 - 35) =     14.38142  eV     1   --> A_1  D_1  S_1  
     e( 36 - 36) =     14.69479  eV     1   --> B_1  D_3  S_3  
     e( 37 - 37) =     15.10497  eV     1   --> A_1  D_1  S_1  
     e( 38 - 38) =     15.44132  eV     1   --> B_1  D_3  S_3  
     e( 39 - 39) =     16.70799  eV     1   --> A_2  D_2  S_2  

 **************************************************************************

 **************************************************************************

                    xk=(   0.31667,   0.54848,   0.00000  )

     Band symmetry, C_2v (mm2)  point group:

     e(  1 -  2) =    -53.41976  eV     2   --> A_1  D_1  S_1  
     e(  1 -  2) =    -53.41976  eV     2   --> B_1  D_3  S_3  
     e(  3 -  4) =    -27.68878  eV     2   --> A_1  D_1  S_1  
     e(  3 -  4) =    -27.68878  eV     2   --> B_1  D_3  S_3  
     e(  5 -  6) =    -27.63237  eV     2   --> A_1  D_1  S_1  
     e(  5 -  6) =    -27.63237  eV     2   --> B_1  D_3  S_3  
     e(  7 -  8) =    -27.52048  eV     2   --> A_2  D_2  S_2  
     e(  7 -  8) =    -27.52048  eV     2   --> B_2  D_4  S_4  
     e(  9 -  9) =     -4.57033  eV     1   -->   ?
     e( 10 - 10) =     -4.56873  eV     1   -->   ?
     e( 11 - 11) =     -4.48312  eV     1   --> A_2  D_2  S_2  
     e( 12 - 12) =     -4.48148  eV     1   --> B_2  D_4  S_4  
     e( 13 - 13) =      2.01775  eV     1   --> A_2  D_2  S_2  
     e( 14 - 14) =      2.03030  eV     1   --> B_2  D_4  S_4  
     e( 15 - 15) =      2.74045  eV     1   --> A_1  D_1  S_1  
     e( 16 - 16) =      2.74929  eV     1   --> B_1  D_3  S_3  
     e( 17 - 17) =      3.42926  eV     1   --> A_1  D_1  S_1  
     e( 18 - 18) =      3.43976  eV     1   --> B_1  D_3  S_3  
     e( 19 - 19) =      3.86638  eV     1   --> A_1  D_1  S_1  
     e( 20 - 20) =      3.87962  eV     1   --> B_1  D_3  S_3  
     e( 21 - 21) =      4.49983  eV     1   --> A_2  D_2  S_2  
     e( 22 - 22) =      4.53236  eV     1   --> B_2  D_4  S_4  
     e( 23 - 23) =      5.28802  eV     1   --> B_2  D_4  S_4  
     e( 24 - 24) =      5.31054  eV     1   --> A_2  D_2  S_2  
     e( 25 - 25) =      7.34481  eV     1   --> A_1  D_1  S_1  
     e( 26 - 26) =      7.36450  eV     1   --> B_1  D_3  S_3  
     e( 27 - 27) =      9.09855  eV     1   --> A_1  D_1  S_1  
     e( 28 - 28) =      9.10286  eV     1   --> B_1  D_3  S_3  
     e( 29 - 29) =     10.39952  eV     1   --> A_2  D_2  S_2  
     e( 30 - 30) =     10.58510  eV     1   --> B_2  D_4  S_4  
     e( 31 - 31) =     10.88649  eV     1   --> A_1  D_1  S_1  
     e( 32 - 32) =     10.91896  eV     1   --> B_1  D_3  S_3  
     e( 33 - 33) =     12.21710  eV     1   --> A_2  D_2  S_2  
     e( 34 - 34) =     12.27580  eV     1   --> B_2  D_4  S_4  
     e( 35 - 35) =     14.32989  eV     1   --> A_1  D_1  S_1  
     e( 36 - 36) =     14.77158  eV     1   --> B_1  D_3  S_3  
     e( 37 - 37) =     15.01332  eV     1   --> A_1  D_1  S_1  
     e( 38 - 38) =     15.19338  eV     1   --> B_1  D_3  S_3  
     e( 39 - 39) =     16.90259  eV     1   --> A_2  D_2  S_2  

 **************************************************************************

 **************************************************************************

                    xk=(   0.33333,   0.57735,   0.00000  )

     zone border point and non-symmorphic group 
     symmetry decomposition not available

 **************************************************************************

 **************************************************************************

                    xk=(   0.34167,   0.56292,   0.00000  )

     point group C_2v (mm2) 
     there are  4 classes
     the character table:

       E     C2    s_v   s_v' 
A_1    1.00  1.00  1.00  1.00
A_2    1.00  1.00 -1.00 -1.00
B_1    1.00 -1.00  1.00 -1.00
B_2    1.00 -1.00 -1.00  1.00

     the symmetry operations in each class and the name of the first element:

     E        1
                                                                 
     C2       2
                                                                 
     s_v      4
                                                                 
     s_v'     3
                                                                 

     Band symmetry, C_2v (mm2)  point group:

     e(  1 -  2) =    -53.41963  eV     2   --> A_1  D_1  S_1  
     e(  1 -  2) =    -53.41963  eV     2   --> B_2  D_4  S_4  
     e(  3 -  4) =    -27.68490  eV     2   --> A_1  D_1  S_1  
     e(  3 -  4) =    -27.68490  eV     2   --> B_2  D_4  S_4  
     e(  5 -  6) =    -27.63780  eV     2   --> A_1  D_1  S_1  
     e(  5 -  6) =    -27.63780  eV     2   --> B_2  D_4  S_4  
     e(  7 -  8) =    -27.52023  eV     2   --> A_2  D_2  S_2  
     e(  7 -  8) =    -27.52023  eV     2   --> B_1  D_3  S_3  
     e(  9 -  9) =     -4.56205  eV     1   -->   ?
     e( 10 - 10) =     -4.56132  eV     1   -->   ?
     e( 11 - 11) =     -4.47868  eV     1   -->   ?
     e( 12 - 12) =     -4.47794  eV     1   -->   ?
     e( 13 - 13) =      2.00339  eV     1   --> A_2  D_2  S_2  
     e( 14 - 14) =      2.01603  eV     1   --> B_1  D_3  S_3  
     e( 15 - 15) =      2.80412  eV     1   --> A_1  D_1  S_1  
     e( 16 - 16) =      2.80543  eV     1   --> B_2  D_4  S_4  
     e( 17 - 17) =      3.36107  eV     1   --> A_1  D_1  S_1  
     e( 18 - 18) =      3.37938  eV     1   --> B_2  D_4  S_4  
     e( 19 - 19) =      3.85784  eV     1   --> B_2  D_4  S_4  
     e( 20 - 20) =      3.85930  eV     1   --> A_1  D_1  S_1  
     e( 21 - 21) =      4.52816  eV     1   --> B_1  D_3  S_3  
     e( 22 - 22) =      4.54433  eV     1   --> A_2  D_2  S_2  
     e( 23 - 23) =      5.26966  eV     1   --> A_2  D_2  S_2  
     e( 24 - 24) =      5.28194  eV     1   --> B_1  D_3  S_3  
     e( 25 - 25) =      7.36808  eV     1   --> A_1  D_1  S_1  
     e( 26 - 26) =      7.38785  eV     1   --> B_2  D_4  S_4  
     e( 27 - 27) =      9.07199  eV     1   --> B_2  D_4  S_4  
     e( 28 - 28) =      9.07341  eV     1   --> A_1  D_1  S_1  
     e( 29 - 29) =     10.39230  eV     1   --> A_2  D_2  S_2  
     e( 30 - 30) =     10.57898  eV     1   --> B_1  D_3  S_3  
     e( 31 - 31) =     10.92464  eV     1   --> B_2  D_4  S_4  
     e( 32 - 32) =     10.93592  eV     1   --> A_1  D_1  S_1  
     e( 33 - 33) =     12.24421  eV     1   --> B_1  D_3  S_3  
     e( 34 - 34) =     12.27455  eV     1   --> A_2  D_2  S_2  
     e( 35 - 35) =     14.32099  eV     1   --> A_1  D_1  S_1  
     e( 36 - 36) =     14.83119  eV     1   --> B_2  D_4  S_4  
     e( 37 - 37) =     15.00191  eV     1   --> A_1  D_1  S_1  
     e( 38 - 38) =     15.07514  eV     1   --> B_2  D_4  S_4  
     e( 39 - 39) =     16.97407  eV     1   --> A_2  D_2  S_2  

 **************************************************************************

 **************************************************************************

                    xk=(   0.35000,   0.54848,   0.00000  )

     Band symmetry, C_2v (mm2)  point group:

     e(  1 -  2) =    -53.41974  eV     2   --> A_1  D_1  S_1  
     e(  1 -  2) =    -53.41974  eV     2   --> B_2  D_4  S_4  
     e(  3 -  4) =    -27.68965  eV     2   --> A_1  D_1  S_1  
     e(  3 -  4) =    -27.68965  eV     2   --> B_2  D_4  S_4  
     e(  5 -  6) =    -27.63172  eV     2   --> A_1  D_1  S_1  
     e(  5 -  6) =    -27.63172  eV     2   --> B_2  D_4  S_4  
     e(  7 -  8) =    -27.52044  eV     2   --> A_2  D_2  S_2  
     e(  7 -  8) =    -27.52044  eV     2   --> B_1  D_3  S_3  
     e(  9 -  9) =     -4.56890  eV     1   -->   ?
     e( 10 - 10) =     -4.56748  eV     1   -->   ?
     e( 11 - 11) =     -4.48256  eV     1   --> B_1  D_3  S_3  
     e( 12 - 12) =     -4.48113  eV     1   --> A_2  D_2  S_2  
     e( 13 - 13) =      2.01653  eV     1   --> A_2  D_2  S_2  
     e( 14 - 14) =      2.02901  eV     1   --> B_1  D_3  S_3  
     e( 15 - 15) =      2.73863  eV     1   --> A_1  D_1  S_1  
     e( 16 - 16) =      2.74417  eV     1   --> B_2  D_4  S_4  
     e( 17 - 17) =      3.41797  eV     1   --> A_1  D_1  S_1  
     e( 18 - 18) =      3.42404  eV     1   --> B_2  D_4  S_4  
     e( 19 - 19) =      3.88833  eV     1   --> A_1  D_1  S_1  
     e( 20 - 20) =      3.89017  eV     1   --> B_2  D_4  S_4  
     e( 21 - 21) =      4.50339  eV     1   --> B_1  D_3  S_3  
     e( 22 - 22) =      4.53336  eV     1   --> A_2  D_2  S_2  
     e( 23 - 23) =      5.28401  eV     1   --> A_2  D_2  S_2  
     e( 24 - 24) =      5.30697  eV     1   --> B_1  D_3  S_3  
     e( 25 - 25) =      7.34838  eV     1   --> A_1  D_1  S_1  
     e( 26 - 26) =      7.36836  eV     1   --> B_2  D_4  S_4  
     e( 27 - 27) =      9.09693  eV     1   --> B_2  D_4  S_4  
     e( 28 - 28) =      9.09974  eV     1   --> A_1  D_1  S_1  
     e( 29 - 29) =     10.40326  eV     1   --> A_2  D_2  S_2  
     e( 30 - 30) =     10.58849  eV     1   --> B_1  D_3  S_3  
     e( 31 - 31) =     10.89719  eV     1   --> B_2  D_4  S_4  
     e( 32 - 32) =     10.91565  eV     1   --> A_1  D_1  S_1  
     e( 33 - 33) =     12.21404  eV     1   --> B_1  D_3  S_3  
     e( 34 - 34) =     12.27448  eV     1   --> A_2  D_2  S_2  
     e( 35 - 35) =     14.30796  eV     1   --> A_1  D_1  S_1  
     e( 36 - 36) =     14.71859  eV     1   --> B_2  D_4  S_4  
     e( 37 - 37) =     15.05859  eV     1   --> A_1  D_1  S_1  
     e( 38 - 38) =     15.21494  eV     1   --> B_2  D_4  S_4  
     e( 39 - 39) =     16.91846  eV     1   --> A_2  D_2  S_2  

 **************************************************************************

 **************************************************************************

                    xk=(   0.35833,   0.53405,   0.00000  )

     Band symmetry, C_2v (mm2)  point group:

     e(  1 -  2) =    -53.41991  eV     2   --> A_1  D_1  S_1  
     e(  1 -  2) =    -53.41991  eV     2   --> B_2  D_4  S_4  
     e(  3 -  4) =    -27.69602  eV     2   --> A_1  D_1  S_1  
     e(  3 -  4) =    -27.69602  eV     2   --> B_2  D_4  S_4  
     e(  5 -  6) =    -27.62325  eV     2   --> A_1  D_1  S_1  
     e(  5 -  6) =    -27.62325  eV     2   --> B_2  D_4  S_4  
     e(  7 -  8) =    -27.52078  eV     2   --> A_2  D_2  S_2  
     e(  7 -  8) =    -27.52078  eV     2   --> B_1  D_3  S_3  
     e(  9 -  9) =     -4.57938  eV     1   --> B_2  D_4  S_4  
     e( 10 - 10) =     -4.57732  eV     1   --> A_1  D_1  S_1  
     e( 11 - 11) =     -4.48850  eV     1   --> B_1  D_3  S_3  
     e( 12 - 12) =     -4.48644  eV     1   --> A_2  D_2  S_2  
     e( 13 - 13) =      2.03770  eV     1   --> A_2  D_2  S_2  
     e( 14 - 14) =      2.04986  eV     1   --> B_1  D_3  S_3  
     e( 15 - 15) =      2.65308  eV     1   --> A_1  D_1  S_1  
     e( 16 - 16) =      2.66297  eV     1   --> B_2  D_4  S_4  
     e( 17 - 17) =      3.46533  eV     1   --> B_2  D_4  S_4  
     e( 18 - 18) =      3.47537  eV     1   --> A_1  D_1  S_1  
     e( 19 - 19) =      3.94836  eV     1   --> A_1  D_1  S_1  
     e( 20 - 20) =      3.95732  eV     1   --> B_2  D_4  S_4  
     e( 21 - 21) =      4.47173  eV     1   --> B_1  D_3  S_3  
     e( 22 - 22) =      4.51237  eV     1   --> A_2  D_2  S_2  
     e( 23 - 23) =      5.30851  eV     1   --> A_2  D_2  S_2  
     e( 24 - 24) =      5.33979  eV     1   --> B_1  D_3  S_3  
     e( 25 - 25) =      7.31914  eV     1   --> A_1  D_1  S_1  
     e( 26 - 26) =      7.33952  eV     1   --> B_2  D_4  S_4  
     e( 27 - 27) =      9.13543  eV     1   --> B_2  D_4  S_4  
     e( 28 - 28) =      9.13982  eV     1   --> A_1  D_1  S_1  
     e( 29 - 29) =     10.42296  eV     1   --> A_2  D_2  S_2  
     e( 30 - 30) =     10.60564  eV     1   --> B_1  D_3  S_3  
     e( 31 - 31) =     10.85849  eV     1   --> B_2  D_4  S_4  
     e( 32 - 32) =     10.88006  eV     1   --> A_1  D_1  S_1  
     e( 33 - 33) =     12.17384  eV     1   --> B_1  D_3  S_3  
     e( 34 - 34) =     12.26343  eV     1   --> A_2  D_2  S_2  
     e( 35 - 35) =     14.28184  eV     1   --> A_1  D_1  S_1  
     e( 36 - 36) =     14.60757  eV     1   --> B_2  D_4  S_4  
     e( 37 - 37) =     15.15002  eV     1   --> A_1  D_1  S_1  
     e( 38 - 38) =     15.37330  eV     1   --> B_2  D_4  S_4  
     e( 39 - 39) =     16.83800  eV     1   --> A_2  D_2  S_2  

 **************************************************************************

 **************************************************************************

                    xk=(   0.36667,   0.51962,   0.00000  )

     Band symmetry, C_2v (mm2)  point group:

     e(  1 -  2) =    -53.42013  eV     2   --> A_1  D_1  S_1  
     e(  1 -  2) =    -53.42013  eV     2   --> B_2  D_4  S_4  
     e(  3 -  4) =    -27.70308  eV     2   --> A_1  D_1  S_1  
     e(  3 -  4) =    -27.70308  eV     2   --> B_2  D_4  S_4  
     e(  5 -  6) =    -27.61341  eV     2   --> A_1  D_1  S_1  
     e(  5 -  6) =    -27.61341  eV     2   --> B_2  D_4  S_4  
     e(  7 -  8) =    -27.52122  eV     2   --> A_2  D_2  S_2  
     e(  7 -  8) =    -27.52122  eV     2   --> B_1  D_3  S_3  
     e(  9 -  9) =     -4.59294  eV     1   --> B_2  D_4  S_4  
     e( 10 - 10) =     -4.59029  eV     1   --> A_1  D_1  S_1  
     e( 11 - 11) =     -4.49623  eV     1   --> B_1  D_3  S_3  
     e( 12 - 12) =     -4.49360  eV     1   --> A_2  D_2  S_2  
     e( 13 - 13) =      2.06616  eV     1   --> A_2  D_2  S_2  
     e( 14 - 14) =      2.07781  eV     1   --> B_1  D_3  S_3  
     e( 15 - 15) =      2.55949  eV     1   --> A_1  D_1  S_1  
     e( 16 - 16) =      2.57301  eV     1   --> B_2  D_4  S_4  
     e( 17 - 17) =      3.48894  eV     1   --> B_2  D_4  S_4  
     e( 18 - 18) =      3.51422  eV     1   --> A_1  D_1  S_1  
     e( 19 - 19) =      4.04585  eV     1   --> A_1  D_1  S_1  
     e( 20 - 20) =      4.06181  eV     1   --> B_2  D_4  S_4  
     e( 21 - 21) =      4.43634  eV     1   --> B_1  D_3  S_3  
     e( 22 - 22) =      4.48454  eV     1   --> A_2  D_2  S_2  
     e( 23 - 23) =      5.33947  eV     1   --> A_2  D_2  S_2  
     e( 24 - 24) =      5.37671  eV     1   --> B_1  D_3  S_3  
     e( 25 - 25) =      7.28370  eV     1   --> A_1  D_1  S_1  
     e( 26 - 26) =      7.30464  eV     1   --> B_2  D_4  S_4  
     e( 27 - 27) =      9.18396  eV     1   --> B_2  D_4  S_4  
     e( 28 - 28) =      9.19028  eV     1   --> A_1  D_1  S_1  
     e( 29 - 29) =     10.45230  eV     1   --> A_2  D_2  S_2  
     e( 30 - 30) =     10.63130  eV     1   --> B_1  D_3  S_3  
     e( 31 - 31) =     10.81080  eV     1   --> B_2  D_4  S_4  
     e( 32 - 32) =     10.83173  eV     1   --> A_1  D_1  S_1  
     e( 33 - 33) =     12.12409  eV     1   --> B_1  D_3  S_3  
     e( 34 - 34) =     12.24118  eV     1   --> A_2  D_2  S_2  
     e( 35 - 35) =     14.24396  eV     1   --> A_1  D_1  S_1  
     e( 36 - 36) =     14.49947  eV     1   --> B_2  D_4  S_4  
     e( 37 - 37) =     15.27174  eV     1   --> A_1  D_1  S_1  
     e( 38 - 38) =     15.54698  eV     1   --> B_2  D_4  S_4  
     e( 39 - 39) =     16.74509  eV     1   --> A_2  D_2  S_2  

 **************************************************************************

 **************************************************************************

                    xk=(   0.37500,   0.50518,   0.00000  )

     Band symmetry, C_2v (mm2)  point group:

     e(  1 -  2) =    -53.42040  eV     2   --> A_1  D_1  S_1  
     e(  1 -  2) =    -53.42040  eV     2   --> B_2  D_4  S_4  
     e(  3 -  4) =    -27.71035  eV     2   --> A_1  D_1  S_1  
     e(  3 -  4) =    -27.71035  eV     2   --> B_2  D_4  S_4  
     e(  5 -  6) =    -27.60279  eV     2   --> A_1  D_1  S_1  
     e(  5 -  6) =    -27.60279  eV     2   --> B_2  D_4  S_4  
     e(  7 -  8) =    -27.52176  eV     2   --> A_2  D_2  S_2  
     e(  7 -  8) =    -27.52176  eV     2   --> B_1  D_3  S_3  
     e(  9 -  9) =     -4.60899  eV     1   --> B_2  D_4  S_4  
     e( 10 - 10) =     -4.60580  eV     1   --> A_1  D_1  S_1  
     e( 11 - 11) =     -4.50548  eV     1   --> B_1  D_3  S_3  
     e( 12 - 12) =     -4.50233  eV     1   --> A_2  D_2  S_2  
     e( 13 - 13) =      2.10106  eV     1   --> A_2  D_2  S_2  
     e( 14 - 14) =      2.11197  eV     1   --> B_1  D_3  S_3  
     e( 15 - 15) =      2.46378  eV     1   --> A_1  D_1  S_1  
     e( 16 - 16) =      2.48022  eV     1   --> B_2  D_4  S_4  
     e( 17 - 17) =      3.49551  eV     1   --> B_2  D_4  S_4  
     e( 18 - 18) =      3.53241  eV     1   --> A_1  D_1  S_1  
     e( 19 - 19) =      4.17633  eV     1   --> A_1  D_1  S_1  
     e( 20 - 20) =      4.19648  eV     1   --> B_2  D_4  S_4  
     e( 21 - 21) =      4.39980  eV     1   --> B_1  D_3  S_3  
     e( 22 - 22) =      4.45285  eV     1   --> A_2  D_2  S_2  
     e( 23 - 23) =      5.37344  eV     1   --> A_2  D_2  S_2  
     e( 24 - 24) =      5.41469  eV     1   --> B_1  D_3  S_3  
     e( 25 - 25) =      7.24518  eV     1   --> A_1  D_1  S_1  
     e( 26 - 26) =      7.26677  eV     1   --> B_2  D_4  S_4  
     e( 27 - 27) =      9.23900  eV     1   --> B_2  D_4  S_4  
     e( 28 - 28) =      9.24763  eV     1   --> A_1  D_1  S_1  
     e( 29 - 29) =     10.49201  eV     1   --> A_2  D_2  S_2  
     e( 30 - 30) =     10.66613  eV     1   --> B_1  D_3  S_3  
     e( 31 - 31) =     10.75626  eV     1   --> B_2  D_4  S_4  
     e( 32 - 32) =     10.77336  eV     1   --> A_1  D_1  S_1  
     e( 33 - 33) =     12.06561  eV     1   --> B_1  D_3  S_3  
     e( 34 - 34) =     12.20794  eV     1   --> A_2  D_2  S_2  
     e( 35 - 35) =     14.19727  eV     1   --> A_1  D_1  S_1  
     e( 36 - 36) =     14.39498  eV     1   --> B_2  D_4  S_4  
     e( 37 - 37) =     15.41724  eV     1   --> A_1  D_1  S_1  
     e( 38 - 38) =     15.73350  eV     1   --> B_2  D_4  S_4  
     e( 39 - 39) =     16.64853  eV     1   --> A_2  D_2  S_2  

 **************************************************************************

 **************************************************************************

                    xk=(   0.38333,   0.49075,   0.00000  )

     Band symmetry, C_2v (mm2)  point group:

     e(  1 -  2) =    -53.42071  eV     2   --> A_1  D_1  S_1  
     e(  1 -  2) =    -53.42071  eV     2   --> B_2  D_4  S_4  
     e(  3 -  4) =    -27.71757  eV     2   --> A_1  D_1  S_1  
     e(  3 -  4) =    -27.71757  eV     2   --> B_2  D_4  S_4  
     e(  5 -  6) =    -27.59176  eV     2   --> A_1  D_1  S_1  
     e(  5 -  6) =    -27.59176  eV     2   --> B_2  D_4  S_4  
     e(  7 -  8) =    -27.52236  eV     2   --> A_2  D_2  S_2  
     e(  7 -  8) =    -27.52236  eV     2   --> B_1  D_3  S_3  
     e(  9 -  9) =     -4.62698  eV     1   --> B_2  D_4  S_4  
     e( 10 - 10) =     -4.62328  eV     1   --> A_1  D_1  S_1  
     e( 11 - 11) =     -4.51596  eV     1   --> B_1  D_3  S_3  
     e( 12 - 12) =     -4.51234  eV     1   --> A_2  D_2  S_2  
     e( 13 - 13) =      2.14146  eV     1   --> A_2  D_2  S_2  
     e( 14 - 14) =      2.15136  eV     1   --> B_1  D_3  S_3  
     e( 15 - 15) =      2.36903  eV     1   --> A_1  D_1  S_1  
     e( 16 - 16) =      2.38781  eV     1   --> B_2  D_4  S_4  
     e( 17 - 17) =      3.49061  eV     1   --> B_2  D_4  S_4  
     e( 18 - 18) =      3.53593  eV     1   --> A_1  D_1  S_1  
     e( 19 - 19) =      4.33002  eV     1   --> A_1  D_1  S_1  
     e( 20 - 20) =      4.35184  eV     1   --> B_2  D_4  S_4  
     e( 21 - 21) =      4.36407  eV     1   --> B_1  D_3  S_3  
     e( 22 - 22) =      4.41969  eV     1   --> A_2  D_2  S_2  
     e( 23 - 23) =      5.40768  eV     1   --> A_2  D_2  S_2  
     e( 24 - 24) =      5.45139  eV     1   --> B_1  D_3  S_3  
     e( 25 - 25) =      7.20611  eV     1   --> A_1  D_1  S_1  
     e( 26 - 26) =      7.22832  eV     1   --> B_2  D_4  S_4  
     e( 27 - 27) =      9.29739  eV     1   --> B_2  D_4  S_4  
     e( 28 - 28) =      9.30871  eV     1   --> A_1  D_1  S_1  
     e( 29 - 29) =     10.54250  eV     1   --> A_2  D_2  S_2  
     e( 30 - 30) =     10.69692  eV     1   --> B_2  D_4  S_4  
     e( 31 - 31) =     10.70758  eV     1   --> A_1  D_1  S_1  
     e( 32 - 32) =     10.71053  eV     1   --> B_1  D_3  S_3  
     e( 33 - 33) =     11.99958  eV     1   --> B_1  D_3  S_3  
     e( 34 - 34) =     12.16435  eV     1   --> A_2  D_2  S_2  
     e( 35 - 35) =     14.14452  eV     1   --> A_1  D_1  S_1  
     e( 36 - 36) =     14.29466  eV     1   --> B_2  D_4  S_4  
     e( 37 - 37) =     15.57978  eV     1   --> A_1  D_1  S_1  
     e( 38 - 38) =     15.93069  eV     1   --> B_2  D_4  S_4  
     e( 39 - 39) =     16.55389  eV     1   --> A_2  D_2  S_2  

 **************************************************************************

 **************************************************************************

                    xk=(   0.39167,   0.47631,   0.00000  )

     Band symmetry, C_2v (mm2)  point group:

     e(  1 -  2) =    -53.42104  eV     2   --> A_1  D_1  S_1  
     e(  1 -  2) =    -53.42104  eV     2   --> B_2  D_4  S_4  
     e(  3 -  4) =    -27.72460  eV     2   --> A_1  D_1  S_1  
     e(  3 -  4) =    -27.72460  eV     2   --> B_2  D_4  S_4  
     e(  5 -  6) =    -27.58056  eV     2   --> A_1  D_1  S_1  
     e(  5 -  6) =    -27.58056  eV     2   --> B_2  D_4  S_4  
     e(  7 -  8) =    -27.52302  eV     2   --> A_2  D_2  S_2  
     e(  7 -  8) =    -27.52302  eV     2   --> B_1  D_3  S_3  
     e(  9 -  9) =     -4.64634  eV     1   --> B_2  D_4  S_4  
     e( 10 - 10) =     -4.64219  eV     1   --> A_1  D_1  S_1  
     e( 11 - 11) =     -4.52736  eV     1   --> B_1  D_3  S_3  
     e( 12 - 12) =     -4.52332  eV     1   --> A_2  D_2  S_2  
     e( 13 - 13) =      2.18631  eV     1   --> A_2  D_2  S_2  
     e( 14 - 14) =      2.19488  eV     1   --> B_1  D_3  S_3  
     e( 15 - 15) =      2.27700  eV     1   --> A_1  D_1  S_1  
     e( 16 - 16) =      2.29767  eV     1   --> B_2  D_4  S_4  
     e( 17 - 17) =      3.47882  eV     1   --> B_2  D_4  S_4  
     e( 18 - 18) =      3.53049  eV     1   --> A_1  D_1  S_1  
     e( 19 - 19) =      4.33063  eV     1   --> B_1  D_3  S_3  
     e( 20 - 20) =      4.38691  eV     1   --> A_2  D_2  S_2  
     e( 21 - 21) =      4.49865  eV     1   --> A_1  D_1  S_1  
     e( 22 - 22) =      4.52065  eV     1   --> B_2  D_4  S_4  
     e( 23 - 23) =      5.44009  eV     1   --> A_2  D_2  S_2  
     e( 24 - 24) =      5.48509  eV     1   --> B_1  D_3  S_3  
     e( 25 - 25) =      7.16832  eV     1   --> A_1  D_1  S_1  
     e( 26 - 26) =      7.19105  eV     1   --> B_2  D_4  S_4  
     e( 27 - 27) =      9.35638  eV     1   --> B_2  D_4  S_4  
     e( 28 - 28) =      9.37073  eV     1   --> A_1  D_1  S_1  
     e( 29 - 29) =     10.60392  eV     1   --> A_2  D_2  S_2  
     e( 30 - 30) =     10.63468  eV     1   --> B_2  D_4  S_4  
     e( 31 - 31) =     10.63690  eV     1   --> A_1  D_1  S_1  
     e( 32 - 32) =     10.76460  eV     1   --> B_1  D_3  S_3  
     e( 33 - 33) =     11.92745  eV     1   --> B_1  D_3  S_3  
     e( 34 - 34) =     12.11150  eV     1   --> A_2  D_2  S_2  
     e( 35 - 35) =     14.08775  eV     1   --> A_1  D_1  S_1  
     e( 36 - 36) =     14.19905  eV     1   --> B_2  D_4  S_4  
     e( 37 - 37) =     15.75261  eV     1   --> A_1  D_1  S_1  
     e( 38 - 38) =     16.13656  eV     1   --> B_2  D_4  S_4  
     e( 39 - 39) =     16.46443  eV     1   --> A_2  D_2  S_2  

 **************************************************************************

 **************************************************************************

                    xk=(   0.40000,   0.46188,   0.00000  )

     Band symmetry, C_2v (mm2)  point group:

[...]
     e( 20 - 20) =      5.65714  eV     1   --> A_1            
     e( 21 - 24) =      5.89089  eV     4   --> E_1            
     e( 21 - 24) =      5.89089  eV     4   --> E_2            
     e( 25 - 25) =      7.44564  eV     1   --> A_1            
     e( 26 - 26) =      7.47486  eV     1   --> B_1            
     e( 27 - 30) =     10.17138  eV     4   --> E_1            
     e( 27 - 30) =     10.17138  eV     4   --> E_2            
     e( 31 - 32) =     10.42143  eV     2   --> E_2            
     e( 33 - 34) =     10.42222  eV     2   --> E_1            
     e( 35 - 35) =     13.44935  eV     1   --> A_1            
     e( 36 - 36) =     13.48062  eV     1   --> B_1            
     e( 37 - 37) =     14.42557  eV     1   --> A_1            
     e( 38 - 38) =     14.43409  eV     1   --> B_1            
     e( 39 - 39) =     16.41548  eV     1   --> A_1            

 **************************************************************************

 **************************************************************************

                    xk=(   0.00000,   0.00000,   0.10732  )

     zone border point and non-symmorphic group 
     symmetry decomposition not available

 **************************************************************************

 **************************************************************************

                    xk=(   0.01667,   0.02887,   0.10732  )

     zone border point and non-symmorphic group 
     symmetry decomposition not available

 **************************************************************************

 **************************************************************************

                    xk=(   0.03333,   0.05774,   0.10732  )

     zone border point and non-symmorphic group 
     symmetry decomposition not available

 **************************************************************************

 **************************************************************************

                    xk=(   0.05000,   0.08660,   0.10732  )

     zone border point and non-symmorphic group 
     symmetry decomposition not available

 **************************************************************************

 **************************************************************************

                    xk=(   0.06667,   0.11547,   0.10732  )

     zone border point and non-symmorphic group 
     symmetry decomposition not available

 **************************************************************************

 **************************************************************************

                    xk=(   0.08333,   0.14434,   0.10732  )

     zone border point and non-symmorphic group 
     symmetry decomposition not available

 **************************************************************************

 **************************************************************************

                    xk=(   0.10000,   0.17321,   0.10732  )

     zone border point and non-symmorphic group 
     symmetry decomposition not available

 **************************************************************************

 **************************************************************************

                    xk=(   0.11667,   0.20207,   0.10732  )

     zone border point and non-symmorphic group 
     symmetry decomposition not available

 **************************************************************************

 **************************************************************************

                    xk=(   0.13333,   0.23094,   0.10732  )

     zone border point and non-symmorphic group 
     symmetry decomposition not available

 **************************************************************************

 **************************************************************************

                    xk=(   0.15000,   0.25981,   0.10732  )

     zone border point and non-symmorphic group 
     symmetry decomposition not available

 **************************************************************************

 **************************************************************************

                    xk=(   0.16667,   0.28868,   0.10732  )

     zone border point and non-symmorphic group 
     symmetry decomposition not available

 **************************************************************************

 **************************************************************************

                    xk=(   0.18333,   0.31754,   0.10732  )

     zone border point and non-symmorphic group 
     symmetry decomposition not available

 **************************************************************************

 **************************************************************************

                    xk=(   0.20000,   0.34641,   0.10732  )

     zone border point and non-symmorphic group 
     symmetry decomposition not available

 **************************************************************************

 **************************************************************************

                    xk=(   0.21667,   0.37528,   0.10732  )

     zone border point and non-symmorphic group 
     symmetry decomposition not available

 **************************************************************************

 **************************************************************************

                    xk=(   0.23333,   0.40415,   0.10732  )

     zone border point and non-symmorphic group 
     symmetry decomposition not available

 **************************************************************************

 **************************************************************************

                    xk=(   0.25000,   0.43301,   0.10732  )

     zone border point and non-symmorphic group 
     symmetry decomposition not available

 **************************************************************************

 **************************************************************************

                    xk=(   0.26667,   0.46188,   0.10732  )

     zone border point and non-symmorphic group 
     symmetry decomposition not available

 **************************************************************************

 **************************************************************************

                    xk=(   0.28333,   0.49075,   0.10732  )

     zone border point and non-symmorphic group 
     symmetry decomposition not available

 **************************************************************************

 **************************************************************************

                    xk=(   0.30000,   0.51962,   0.10732  )

     zone border point and non-symmorphic group 
     symmetry decomposition not available

 **************************************************************************

 **************************************************************************

                    xk=(   0.31667,   0.54848,   0.10732  )

     zone border point and non-symmorphic group 
     symmetry decomposition not available

 **************************************************************************

 **************************************************************************

                    xk=(   0.33333,   0.57735,   0.10732  )

     zone border point and non-symmorphic group 
     symmetry decomposition not available

 **************************************************************************

 **************************************************************************

                    xk=(   0.34167,   0.56292,   0.10732  )

     zone border point and non-symmorphic group 
     symmetry decomposition not available

 **************************************************************************

 **************************************************************************

                    xk=(   0.35000,   0.54848,   0.10732  )

     zone border point and non-symmorphic group 
     symmetry decomposition not available

 **************************************************************************

 **************************************************************************

                    xk=(   0.35833,   0.53405,   0.10732  )

     zone border point and non-symmorphic group 
     symmetry decomposition not available

 **************************************************************************

 **************************************************************************

                    xk=(   0.36667,   0.51962,   0.10732  )

     zone border point and non-symmorphic group 
     symmetry decomposition not available

 **************************************************************************

 **************************************************************************

                    xk=(   0.37500,   0.50518,   0.10732  )

     zone border point and non-symmorphic group 
     symmetry decomposition not available

 **************************************************************************

 **************************************************************************

                    xk=(   0.38333,   0.49075,   0.10732  )

     zone border point and non-symmorphic group 
     symmetry decomposition not available

 **************************************************************************

 **************************************************************************

                    xk=(   0.39167,   0.47631,   0.10732  )

     zone border point and non-symmorphic group 
     symmetry decomposition not available

 **************************************************************************

 **************************************************************************

                    xk=(   0.40000,   0.46188,   0.10732  )

     zone border point and non-symmorphic group 
     symmetry decomposition not available

 **************************************************************************

 **************************************************************************

                    xk=(   0.40833,   0.44745,   0.10732  )

     zone border point and non-symmorphic group 
     symmetry decomposition not available

 **************************************************************************

 **************************************************************************

                    xk=(   0.41667,   0.43301,   0.10732  )

     zone border point and non-symmorphic group 
     symmetry decomposition not available

 **************************************************************************

 **************************************************************************

                    xk=(   0.42500,   0.41858,   0.10732  )

     zone border point and non-symmorphic group 
     symmetry decomposition not available

 **************************************************************************

 **************************************************************************

                    xk=(   0.43333,   0.40415,   0.10732  )

     zone border point and non-symmorphic group 
     symmetry decomposition not available

 **************************************************************************

 **************************************************************************

                    xk=(   0.44167,   0.38971,   0.10732  )

     zone border point and non-symmorphic group 
     symmetry decomposition not available

 **************************************************************************

 **************************************************************************

                    xk=(   0.45000,   0.37528,   0.10732  )

     zone border point and non-symmorphic group 
     symmetry decomposition not available

 **************************************************************************

 **************************************************************************

                    xk=(   0.45833,   0.36084,   0.10732  )

     zone border point and non-symmorphic group 
     symmetry decomposition not available

 **************************************************************************

 **************************************************************************

                    xk=(   0.46667,   0.34641,   0.10732  )

     zone border point and non-symmorphic group 
     symmetry decomposition not available

 **************************************************************************

 **************************************************************************

                    xk=(   0.47500,   0.33198,   0.10732  )

     zone border point and non-symmorphic group 
     symmetry decomposition not available

 **************************************************************************

 **************************************************************************

                    xk=(   0.48333,   0.31754,   0.10732  )

     zone border point and non-symmorphic group 
     symmetry decomposition not available

 **************************************************************************

 **************************************************************************

                    xk=(   0.49167,   0.30311,   0.10732  )

     zone border point and non-symmorphic group 
     symmetry decomposition not available

 **************************************************************************

 **************************************************************************

                    xk=(   0.50000,   0.28868,   0.10732  )

     zone border point and non-symmorphic group 
     symmetry decomposition not available

 **************************************************************************

 **************************************************************************

                    xk=(   0.47500,   0.27424,   0.10732  )

     zone border point and non-symmorphic group 
     symmetry decomposition not available

 **************************************************************************

 **************************************************************************

                    xk=(   0.45000,   0.25981,   0.10732  )

     zone border point and non-symmorphic group 
     symmetry decomposition not available

 **************************************************************************

 **************************************************************************

                    xk=(   0.42500,   0.24537,   0.10732  )

     zone border point and non-symmorphic group 
     symmetry decomposition not available

 **************************************************************************

 **************************************************************************

                    xk=(   0.40000,   0.23094,   0.10732  )

     zone border point and non-symmorphic group 
     symmetry decomposition not available

 **************************************************************************

 **************************************************************************

                    xk=(   0.37500,   0.21651,   0.10732  )

     zone border point and non-symmorphic group 
     symmetry decomposition not available

 **************************************************************************

 **************************************************************************

                    xk=(   0.35000,   0.20207,   0.10732  )

     zone border point and non-symmorphic group 
     symmetry decomposition not available

 **************************************************************************

 **************************************************************************

                    xk=(   0.32500,   0.18764,   0.10732  )

     zone border point and non-symmorphic group 
     symmetry decomposition not available

 **************************************************************************

 **************************************************************************

                    xk=(   0.30000,   0.17321,   0.10732  )

     zone border point and non-symmorphic group 
     symmetry decomposition not available

 **************************************************************************

 **************************************************************************

                    xk=(   0.27500,   0.15877,   0.10732  )

     zone border point and non-symmorphic group 
     symmetry decomposition not available

 **************************************************************************

 **************************************************************************

                    xk=(   0.25000,   0.14434,   0.10732  )

     zone border point and non-symmorphic group 
     symmetry decomposition not available

 **************************************************************************

 **************************************************************************

                    xk=(   0.22500,   0.12990,   0.10732  )

     zone border point and non-symmorphic group 
     symmetry decomposition not available

 **************************************************************************

 **************************************************************************

                    xk=(   0.20000,   0.11547,   0.10732  )

     zone border point and non-symmorphic group 
     symmetry decomposition not available

 **************************************************************************

 **************************************************************************

                    xk=(   0.17500,   0.10104,   0.10732  )

     zone border point and non-symmorphic group 
     symmetry decomposition not available

 **************************************************************************

 **************************************************************************

                    xk=(   0.15000,   0.08660,   0.10732  )

     zone border point and non-symmorphic group 
     symmetry decomposition not available

 **************************************************************************

 **************************************************************************

                    xk=(   0.12500,   0.07217,   0.10732  )

     zone border point and non-symmorphic group 
     symmetry decomposition not available

 **************************************************************************

 **************************************************************************

                    xk=(   0.10000,   0.05774,   0.10732  )

     zone border point and non-symmorphic group 
     symmetry decomposition not available

 **************************************************************************

 **************************************************************************

                    xk=(   0.07500,   0.04330,   0.10732  )

     zone border point and non-symmorphic group 
     symmetry decomposition not available

 **************************************************************************

 **************************************************************************

                    xk=(   0.05000,   0.02887,   0.10732  )

     zone border point and non-symmorphic group 
     symmetry decomposition not available

 **************************************************************************

 **************************************************************************

                    xk=(   0.02500,   0.01443,   0.10732  )

     zone border point and non-symmorphic group 
     symmetry decomposition not available

 **************************************************************************

 **************************************************************************

                    xk=(   0.00000,   0.00000,   0.10732  )

     zone border point and non-symmorphic group 
     symmetry decomposition not available

 **************************************************************************
 
     BANDS        :     21.82s CPU     27.53s WALL

 
   This run was terminated on:  13: 7:54  26Nov2023            

=------------------------------------------------------------------------------=
   JOB DONE.
=------------------------------------------------------------------------------=
