
     Program BANDS v.7.2 starts on 26Nov2023 at 13: 2:44 

     This program is part of the open-source Quantum ESPRESSO suite
     for quantum simulation of materials; please cite
         "P. Giannozzi et al., J. Phys.:Condens. Matter 21 395502 (2009);
         "P. Giannozzi et al., J. Phys.:Condens. Matter 29 465901 (2017);
         "P. Giannozzi et al., J. Chem. Phys. 152 154105 (2020);
          URL http://www.quantum-espresso.org", 
     in publications or presentations arising from this work. More details at
     http://www.quantum-espresso.org/quote

     Parallel version (MPI), running on     8 processors

     MPI processes distributed on     1 nodes
     R & G space division:  proc/nbgrp/npool/nimage =       8
     5057 MiB available memory on the printing compute node when the environment starts
 

     Reading xml data from directory:

     ./NovdW/fixed/MoS2.NovdW.fixed.save/

     IMPORTANT: XC functional enforced from input :
     Exchange-correlation= PBE
                           (   1   4   3   4   0   0   0)
     Any further DFT definition will be discarded
     Please, verify this is what you really want

 
     Parallelization info
     --------------------
     sticks:   dense  smooth     PW     G-vecs:    dense   smooth      PW
     Min          86      43     13                 8680     3067     529
     Max          88      44     14                 8688     3084     544
     Sum         691     349    109                69455    24621    4307
 
     Using Slab Decomposition
 
     Reading collected, re-writing distributed wavefunctions
     high-symmetry point:  0.0000 0.0000 0.0000   x coordinate   0.0000
     high-symmetry point:  0.3333 0.5774 0.0000   x coordinate   0.6667
     high-symmetry point:  0.5000 0.2887 0.0000   x coordinate   1.0000
     high-symmetry point:  0.0000 0.0000 0.0000   x coordinate   1.5774
     high-symmetry point:  0.0000 0.0000 0.1073   x coordinate   1.6847
     high-symmetry point:  0.3333 0.5774 0.1073   x coordinate   1.6847
     high-symmetry point:  0.5000 0.2887 0.1073   x coordinate   2.0180
     high-symmetry point:  0.0000 0.0000 0.1073   x coordinate   2.5953

     Plottable bands (eV) written to file MoS2.NovdW.fixed.band.gnu
     Bands written to file MoS2.NovdW.fixed.band

 **************************************************************************

                    xk=(   0.00000,   0.00000,   0.00000  )

     point group D_6h(6/mmm)
     there are 12 classes
     the character table:

       E     2C6   2C3   C2    3C2'  3C2'' i     2S3   2S6   s_h   3s_d  3s_v 
A_1g   1.00  1.00  1.00  1.00  1.00  1.00  1.00  1.00  1.00  1.00  1.00  1.00
A_2g   1.00  1.00  1.00  1.00 -1.00 -1.00  1.00  1.00  1.00  1.00 -1.00 -1.00
B_1g   1.00 -1.00  1.00 -1.00  1.00 -1.00  1.00 -1.00  1.00 -1.00  1.00 -1.00
B_2g   1.00 -1.00  1.00 -1.00 -1.00  1.00  1.00 -1.00  1.00 -1.00 -1.00  1.00
E_1g   2.00  1.00 -1.00 -2.00  0.00  0.00  2.00  1.00 -1.00 -2.00  0.00  0.00
E_2g   2.00 -1.00 -1.00  2.00  0.00  0.00  2.00 -1.00 -1.00  2.00  0.00  0.00
A_1u   1.00  1.00  1.00  1.00  1.00  1.00 -1.00 -1.00 -1.00 -1.00 -1.00 -1.00
A_2u   1.00  1.00  1.00  1.00 -1.00 -1.00 -1.00 -1.00 -1.00 -1.00  1.00  1.00
B_1u   1.00 -1.00  1.00 -1.00  1.00 -1.00 -1.00  1.00 -1.00  1.00 -1.00  1.00
B_2u   1.00 -1.00  1.00 -1.00 -1.00  1.00 -1.00  1.00 -1.00  1.00  1.00 -1.00
E_1u   2.00  1.00 -1.00 -2.00  0.00  0.00 -2.00 -1.00  1.00  2.00  0.00  0.00
E_2u   2.00 -1.00 -1.00  2.00  0.00  0.00 -2.00  1.00  1.00 -2.00  0.00  0.00

     the symmetry operations in each class and the name of the first element:

     E        1
                                                                 
     2C6      5    6
                                                                 
     2C3      7    8
                                                                 
     C2       2
                                                                 
     3C2'     4   12   11
                                                                 
     3C2''    3    9   10
                                                                 
     i       13
                                                                 
     2S3     17   18
                                                                 
     2S6     19   20
                                                                 
     s_h     14
                                                                 
     3s_d    16   24   23
                                                                 
     3s_v    15   21   22
                                                                 

     Band symmetry, D_6h(6/mmm) point group:

     e(  1 -  2) =    -53.46113  eV     2   --> A_1g           
     e(  1 -  2) =    -53.46113  eV     2   --> B_2u           
     e(  3 -  4) =    -27.60384  eV     2   --> B_1g           
     e(  3 -  4) =    -27.60384  eV     2   --> A_2u           
     e(  5 -  8) =    -27.40422  eV     4   --> E_2g           
     e(  5 -  8) =    -27.40422  eV     4   --> E_1u           
     e(  9 -  9) =     -6.68989  eV     1   --> A_1g           
     e( 10 - 10) =     -6.67086  eV     1   --> B_2u           
     e( 11 - 11) =     -5.38344  eV     1   --> B_1g           
     e( 12 - 12) =     -5.34839  eV     1   --> A_2u           
     e( 13 - 13) =      1.71669  eV     1   --> A_1g           
     e( 14 - 14) =      1.87967  eV     1   --> B_2u           
     e( 15 - 16) =      4.77622  eV     2   --> E_2g           
     e( 17 - 18) =      4.77673  eV     2   --> E_1u           
     e( 19 - 19) =      5.37697  eV     1   --> B_1g           
     e( 20 - 21) =      5.89010  eV     2   --> E_1g           
     e( 22 - 23) =      5.89209  eV     2   --> E_2u           
     e( 24 - 24) =      5.94833  eV     1   --> A_2u           
     e( 25 - 25) =      7.23578  eV     1   --> A_1g           
     e( 26 - 26) =      7.62379  eV     1   --> B_2u           
     e( 27 - 28) =     10.17065  eV     2   --> E_1g           
     e( 29 - 30) =     10.17243  eV     2   --> E_2u           
     e( 31 - 32) =     10.41682  eV     2   --> E_2g           
     e( 33 - 34) =     10.42688  eV     2   --> E_1u           
     e( 35 - 35) =     13.27019  eV     1   --> A_1g           
     e( 36 - 36) =     13.66507  eV     1   --> B_2u           
     e( 37 - 37) =     14.38836  eV     1   --> A_1g           
     e( 38 - 38) =     14.50575  eV     1   --> B_1g           
     e( 39 - 39) =     16.39169  eV     1   --> A_2u           

 **************************************************************************

 **************************************************************************

                    xk=(   0.01667,   0.02887,   0.00000  )

     point group C_2v (mm2) 
     there are  4 classes
     the character table:

       E     C2    s_v   s_v' 
A_1    1.00  1.00  1.00  1.00
A_2    1.00  1.00 -1.00 -1.00
B_1    1.00 -1.00  1.00 -1.00
B_2    1.00 -1.00 -1.00  1.00

     the symmetry operations in each class and the name of the first element:

     E        1
                                                                 
     C2       2
                                                                 
     s_v      3
                                                                 
     s_v'     4
                                                                 

     Band symmetry, C_2v (mm2)  point group:

     e(  1 -  2) =    -53.46083  eV     2   --> A_1  D_1  S_1  
     e(  1 -  2) =    -53.46083  eV     2   --> B_1  D_3  S_3  
     e(  3 -  4) =    -27.60323  eV     2   --> A_2  D_2  S_2  
     e(  3 -  4) =    -27.60323  eV     2   --> B_2  D_4  S_4  
     e(  5 -  6) =    -27.40734  eV     2   --> A_1  D_1  S_1  
     e(  5 -  6) =    -27.40734  eV     2   --> B_1  D_3  S_3  
     e(  7 -  8) =    -27.40493  eV     2   --> A_1  D_1  S_1  
     e(  7 -  8) =    -27.40493  eV     2   --> B_1  D_3  S_3  
     e(  9 -  9) =     -6.67751  eV     1   --> A_1  D_1  S_1  
     e( 10 - 10) =     -6.65849  eV     1   --> B_1  D_3  S_3  
     e( 11 - 11) =     -5.37834  eV     1   --> A_2  D_2  S_2  
     e( 12 - 12) =     -5.34344  eV     1   --> B_2  D_4  S_4  
     e( 13 - 13) =      1.73111  eV     1   --> A_1  D_1  S_1  
     e( 14 - 14) =      1.89402  eV     1   --> B_1  D_3  S_3  
     e( 15 - 15) =      4.74734  eV     1   --> B_1  D_3  S_3  
     e( 16 - 16) =      4.74784  eV     1   --> A_1  D_1  S_1  
     e( 17 - 17) =      4.78928  eV     1   --> A_1  D_1  S_1  
     e( 18 - 18) =      4.78981  eV     1   --> B_1  D_3  S_3  
     e( 19 - 19) =      5.31140  eV     1   --> A_2  D_2  S_2  
     e( 20 - 20) =      5.70291  eV     1   --> B_2  D_4  S_4  
     e( 21 - 21) =      5.86914  eV     1   --> A_2  D_2  S_2  
     e( 22 - 22) =      5.87119  eV     1   --> B_2  D_4  S_4  
     e( 23 - 23) =      5.94160  eV     1   --> A_2  D_2  S_2  
     e( 24 - 24) =      6.11665  eV     1   --> B_2  D_4  S_4  
     e( 25 - 25) =      7.23356  eV     1   --> A_1  D_1  S_1  
     e( 26 - 26) =      7.61381  eV     1   --> B_1  D_3  S_3  
     e( 27 - 27) =     10.15025  eV     1   --> A_2  D_2  S_2  
     e( 28 - 28) =     10.15215  eV     1   --> B_2  D_4  S_4  
     e( 29 - 29) =     10.19364  eV     1   --> A_2  D_2  S_2  
     e( 30 - 30) =     10.19553  eV     1   --> B_2  D_4  S_4  
     e( 31 - 31) =     10.38201  eV     1   --> A_1  D_1  S_1  
     e( 32 - 32) =     10.38720  eV     1   --> B_1  D_3  S_3  
     e( 33 - 33) =     10.40215  eV     1   --> A_1  D_1  S_1  
     e( 34 - 34) =     10.41221  eV     1   --> B_1  D_3  S_3  
     e( 35 - 35) =     13.32522  eV     1   --> A_1  D_1  S_1  
     e( 36 - 36) =     13.72681  eV     1   --> B_1  D_3  S_3  
     e( 37 - 37) =     14.41820  eV     1   --> A_1  D_1  S_1  
     e( 38 - 38) =     14.51866  eV     1   --> A_2  D_2  S_2  
     e( 39 - 39) =     16.45162  eV     1   --> B_2  D_4  S_4  

 **************************************************************************

 **************************************************************************

                    xk=(   0.03333,   0.05774,   0.00000  )

     Band symmetry, C_2v (mm2)  point group:

     e(  1 -  2) =    -53.45993  eV     2   --> A_1  D_1  S_1  
     e(  1 -  2) =    -53.45993  eV     2   --> B_1  D_3  S_3  
     e(  3 -  4) =    -27.60142  eV     2   --> A_2  D_2  S_2  
     e(  3 -  4) =    -27.60142  eV     2   --> B_2  D_4  S_4  
     e(  5 -  6) =    -27.41655  eV     2   --> A_1  D_1  S_1  
     e(  5 -  6) =    -27.41655  eV     2   --> B_1  D_3  S_3  
     e(  7 -  8) =    -27.40706  eV     2   --> A_1  D_1  S_1  
     e(  7 -  8) =    -27.40706  eV     2   --> B_1  D_3  S_3  
     e(  9 -  9) =     -6.64057  eV     1   --> A_1  D_1  S_1  
     e( 10 - 10) =     -6.62159  eV     1   --> B_1  D_3  S_3  
     e( 11 - 11) =     -5.36313  eV     1   --> A_2  D_2  S_2  
     e( 12 - 12) =     -5.32868  eV     1   --> B_2  D_4  S_4  
     e( 13 - 13) =      1.77376  eV     1   --> A_1  D_1  S_1  
     e( 14 - 14) =      1.93642  eV     1   --> B_1  D_3  S_3  
     e( 15 - 15) =      4.66363  eV     1   --> B_1  D_3  S_3  
     e( 16 - 16) =      4.66408  eV     1   --> A_1  D_1  S_1  
     e( 17 - 17) =      4.82805  eV     1   --> A_1  D_1  S_1  
     e( 18 - 18) =      4.82864  eV     1   --> B_1  D_3  S_3  
     e( 19 - 19) =      5.16220  eV     1   --> A_2  D_2  S_2  
     e( 20 - 20) =      5.47909  eV     1   --> B_2  D_4  S_4  
     e( 21 - 21) =      5.80532  eV     1   --> A_2  D_2  S_2  
     e( 22 - 22) =      5.80768  eV     1   --> B_2  D_4  S_4  
     e( 23 - 23) =      6.04377  eV     1   --> A_2  D_2  S_2  
     e( 24 - 24) =      6.28434  eV     1   --> B_2  D_4  S_4  
     e( 25 - 25) =      7.22549  eV     1   --> A_1  D_1  S_1  
     e( 26 - 26) =      7.58253  eV     1   --> B_1  D_3  S_3  
     e( 27 - 27) =     10.09026  eV     1   --> A_2  D_2  S_2  
     e( 28 - 28) =     10.10300  eV     1   --> B_2  D_4  S_4  
     e( 29 - 29) =     10.25981  eV     1   --> A_1  D_1  S_1  
     e( 30 - 30) =     10.26112  eV     1   --> A_2  D_2  S_2  
     e( 31 - 31) =     10.26385  eV     1   --> B_2  D_4  S_4  
     e( 32 - 32) =     10.30617  eV     1   --> B_1  D_3  S_3  
     e( 33 - 33) =     10.35854  eV     1   --> A_1  D_1  S_1  
     e( 34 - 34) =     10.36885  eV     1   --> B_1  D_3  S_3  
     e( 35 - 35) =     13.47586  eV     1   --> A_1  D_1  S_1  
     e( 36 - 36) =     13.90498  eV     1   --> B_1  D_3  S_3  
     e( 37 - 37) =     14.50988  eV     1   --> A_1  D_1  S_1  
     e( 38 - 38) =     14.55648  eV     1   --> A_2  D_2  S_2  
     e( 39 - 39) =     16.62279  eV     1   --> B_2  D_4  S_4  

 **************************************************************************

 **************************************************************************

                    xk=(   0.05000,   0.08660,   0.00000  )

     Band symmetry, C_2v (mm2)  point group:

     e(  1 -  2) =    -53.45845  eV     2   --> A_1  D_1  S_1  
     e(  1 -  2) =    -53.45845  eV     2   --> B_1  D_3  S_3  
     e(  3 -  4) =    -27.59848  eV     2   --> A_2  D_2  S_2  
     e(  3 -  4) =    -27.59848  eV     2   --> B_2  D_4  S_4  
     e(  5 -  6) =    -27.43144  eV     2   --> A_1  D_1  S_1  
     e(  5 -  6) =    -27.43144  eV     2   --> B_1  D_3  S_3  
     e(  7 -  8) =    -27.41062  eV     2   --> A_1  D_1  S_1  
     e(  7 -  8) =    -27.41062  eV     2   --> B_1  D_3  S_3  
     e(  9 -  9) =     -6.57977  eV     1   --> A_1  D_1  S_1  
     e( 10 - 10) =     -6.56088  eV     1   --> B_1  D_3  S_3  
     e( 11 - 11) =     -5.33810  eV     1   --> A_2  D_2  S_2  
     e( 12 - 12) =     -5.30438  eV     1   --> B_2  D_4  S_4  
     e( 13 - 13) =      1.84263  eV     1   --> A_1  D_1  S_1  
     e( 14 - 14) =      2.00474  eV     1   --> B_1  D_3  S_3  
     e( 15 - 15) =      4.53345  eV     1   --> B_1  D_3  S_3  
     e( 16 - 16) =      4.53367  eV     1   --> A_1  D_1  S_1  
     e( 17 - 17) =      4.89118  eV     1   --> A_1  D_1  S_1  
     e( 18 - 18) =      4.89187  eV     1   --> B_1  D_3  S_3  
     e( 19 - 19) =      4.98187  eV     1   --> A_2  D_2  S_2  
     e( 20 - 20) =      5.25185  eV     1   --> B_2  D_4  S_4  
     e( 21 - 21) =      5.69715  eV     1   --> A_2  D_2  S_2  
     e( 22 - 22) =      5.70032  eV     1   --> B_2  D_4  S_4  
     e( 23 - 23) =      6.14933  eV     1   --> A_2  D_2  S_2  
     e( 24 - 24) =      6.41982  eV     1   --> B_2  D_4  S_4  
     e( 25 - 25) =      7.20744  eV     1   --> A_1  D_1  S_1  
     e( 26 - 26) =      7.52649  eV     1   --> B_1  D_3  S_3  
     e( 27 - 27) =     10.00955  eV     1   --> A_2  D_2  S_2  
     e( 28 - 28) =     10.03971  eV     1   --> B_2  D_4  S_4  
     e( 29 - 29) =     10.08847  eV     1   --> A_1  D_1  S_1  
     e( 30 - 30) =     10.19213  eV     1   --> B_1  D_3  S_3  
     e( 31 - 31) =     10.28853  eV     1   --> A_1  D_1  S_1  
     e( 32 - 32) =     10.30002  eV     1   --> B_1  D_3  S_3  
     e( 33 - 33) =     10.36891  eV     1   --> A_2  D_2  S_2  
     e( 34 - 34) =     10.37437  eV     1   --> B_2  D_4  S_4  
     e( 35 - 35) =     13.68582  eV     1   --> A_1  D_1  S_1  
     e( 36 - 36) =     14.18207  eV     1   --> B_1  D_3  S_3  
     e( 37 - 37) =     14.61685  eV     1   --> A_2  D_2  S_2  
     e( 38 - 38) =     14.67088  eV     1   --> A_1  D_1  S_1  
     e( 39 - 39) =     16.88091  eV     1   --> B_2  D_4  S_4  

 **************************************************************************

 **************************************************************************

                    xk=(   0.06667,   0.11547,   0.00000  )

     Band symmetry, C_2v (mm2)  point group:

     e(  1 -  2) =    -53.45646  eV     2   --> A_1  D_1  S_1  
     e(  1 -  2) =    -53.45646  eV     2   --> B_1  D_3  S_3  
     e(  3 -  4) =    -27.59449  eV     2   --> A_2  D_2  S_2  
     e(  3 -  4) =    -27.59449  eV     2   --> B_2  D_4  S_4  
     e(  5 -  6) =    -27.45138  eV     2   --> A_1  D_1  S_1  
     e(  5 -  6) =    -27.45138  eV     2   --> B_1  D_3  S_3  
     e(  7 -  8) =    -27.41561  eV     2   --> A_1  D_1  S_1  
     e(  7 -  8) =    -27.41561  eV     2   --> B_1  D_3  S_3  
     e(  9 -  9) =     -6.49624  eV     1   --> A_1  D_1  S_1  
     e( 10 - 10) =     -6.47749  eV     1   --> B_1  D_3  S_3  
     e( 11 - 11) =     -5.30372  eV     1   --> A_2  D_2  S_2  
     e( 12 - 12) =     -5.27101  eV     1   --> B_2  D_4  S_4  
     e( 13 - 13) =      1.93426  eV     1   --> A_1  D_1  S_1  
     e( 14 - 14) =      2.09521  eV     1   --> B_1  D_3  S_3  
     e( 15 - 15) =      4.36858  eV     1   --> A_1  D_1  S_1  
     e( 16 - 16) =      4.36887  eV     1   --> B_1  D_3  S_3  
     e( 17 - 17) =      4.79314  eV     1   --> A_2  D_2  S_2  
     e( 18 - 18) =      4.97615  eV     1   --> A_1  D_1  S_1  
     e( 19 - 19) =      4.97701  eV     1   --> B_1  D_3  S_3  
     e( 20 - 20) =      5.02842  eV     1   --> B_2  D_4  S_4  
     e( 21 - 21) =      5.54392  eV     1   --> A_2  D_2  S_2  
     e( 22 - 22) =      5.54871  eV     1   --> B_2  D_4  S_4  
     e( 23 - 23) =      6.24017  eV     1   --> A_2  D_2  S_2  
     e( 24 - 24) =      6.51909  eV     1   --> B_2  D_4  S_4  
     e( 25 - 25) =      7.17306  eV     1   --> A_1  D_1  S_1  
     e( 26 - 26) =      7.44157  eV     1   --> B_1  D_3  S_3  
     e( 27 - 27) =      9.89884  eV     1   --> A_1  D_1  S_1  
     e( 28 - 28) =      9.92840  eV     1   --> A_2  D_2  S_2  
     e( 29 - 29) =      9.98157  eV     1   --> B_2  D_4  S_4  
     e( 30 - 30) =     10.06523  eV     1   --> B_1  D_3  S_3  
     e( 31 - 31) =     10.19690  eV     1   --> A_1  D_1  S_1  
     e( 32 - 32) =     10.21230  eV     1   --> B_1  D_3  S_3  
     e( 33 - 33) =     10.51032  eV     1   --> A_2  D_2  S_2  
     e( 34 - 34) =     10.52174  eV     1   --> B_2  D_4  S_4  
     e( 35 - 35) =     13.91220  eV     1   --> A_1  D_1  S_1  
     e( 36 - 36) =     14.53648  eV     1   --> B_1  D_3  S_3  
     e( 37 - 37) =     14.69647  eV     1   --> A_2  D_2  S_2  
     e( 38 - 38) =     14.91262  eV     1   --> A_1  D_1  S_1  
     e( 39 - 39) =     17.18762  eV     1   --> B_2  D_4  S_4  

 **************************************************************************

 **************************************************************************

                    xk=(   0.08333,   0.14434,   0.00000  )

     Band symmetry, C_2v (mm2)  point group:

     e(  1 -  2) =    -53.45401  eV     2   --> A_1  D_1  S_1  
     e(  1 -  2) =    -53.45401  eV     2   --> B_1  D_3  S_3  
     e(  3 -  4) =    -27.58958  eV     2   --> A_2  D_2  S_2  
     e(  3 -  4) =    -27.58958  eV     2   --> B_2  D_4  S_4  
     e(  5 -  6) =    -27.47550  eV     2   --> A_1  D_1  S_1  
     e(  5 -  6) =    -27.47550  eV     2   --> B_1  D_3  S_3  
     e(  7 -  8) =    -27.42205  eV     2   --> A_1  D_1  S_1  
     e(  7 -  8) =    -27.42205  eV     2   --> B_1  D_3  S_3  
     e(  9 -  9) =     -6.39157  eV     1   --> A_1  D_1  S_1  
     e( 10 - 10) =     -6.37304  eV     1   --> B_1  D_3  S_3  
     e( 11 - 11) =     -5.26063  eV     1   --> A_2  D_2  S_2  
     e( 12 - 12) =     -5.22920  eV     1   --> B_2  D_4  S_4  
     e( 13 - 13) =      2.04327  eV     1   --> A_1  D_1  S_1  
     e( 14 - 14) =      2.20197  eV     1   --> B_1  D_3  S_3  
     e( 15 - 15) =      4.18300  eV     1   --> A_1  D_1  S_1  
     e( 16 - 16) =      4.18446  eV     1   --> B_1  D_3  S_3  
     e( 17 - 17) =      4.60704  eV     1   --> A_2  D_2  S_2  
     e( 18 - 18) =      4.81412  eV     1   --> B_2  D_4  S_4  
     e( 19 - 19) =      5.07867  eV     1   --> A_1  D_1  S_1  
     e( 20 - 20) =      5.07981  eV     1   --> B_1  D_3  S_3  
     e( 21 - 21) =      5.34771  eV     1   --> A_2  D_2  S_2  
     e( 22 - 22) =      5.35521  eV     1   --> B_2  D_4  S_4  
     e( 23 - 23) =      6.31038  eV     1   --> A_2  D_2  S_2  
     e( 24 - 24) =      6.58155  eV     1   --> B_2  D_4  S_4  
     e( 25 - 25) =      7.11528  eV     1   --> A_1  D_1  S_1  
     e( 26 - 26) =      7.32553  eV     1   --> B_1  D_3  S_3  
     e( 27 - 27) =      9.71653  eV     1   --> A_1  D_1  S_1  
     e( 28 - 28) =      9.86410  eV     1   --> A_2  D_2  S_2  
     e( 29 - 29) =      9.93918  eV     1   --> B_1  D_3  S_3  
     e( 30 - 30) =      9.94423  eV     1   --> B_2  D_4  S_4  
     e( 31 - 31) =     10.09170  eV     1   --> A_1  D_1  S_1  
     e( 32 - 32) =     10.11752  eV     1   --> B_1  D_3  S_3  
     e( 33 - 33) =     10.67668  eV     1   --> A_2  D_2  S_2  
     e( 34 - 34) =     10.69820  eV     1   --> B_2  D_4  S_4  
     e( 35 - 35) =     14.12348  eV     1   --> A_1  D_1  S_1  
     e( 36 - 36) =     14.79136  eV     1   --> A_2  D_2  S_2  
     e( 37 - 37) =     14.94622  eV     1   --> B_1  D_3  S_3  
     e( 38 - 38) =     15.23849  eV     1   --> A_1  D_1  S_1  
     e( 39 - 39) =     17.34640  eV     1   --> B_1  D_3  S_3  

 **************************************************************************

 **************************************************************************

                    xk=(   0.10000,   0.17321,   0.00000  )

     Band symmetry, C_2v (mm2)  point group:

     e(  1 -  2) =    -53.45118  eV     2   --> A_1  D_1  S_1  
     e(  1 -  2) =    -53.45118  eV     2   --> B_1  D_3  S_3  
     e(  3 -  4) =    -27.58391  eV     2   --> A_2  D_2  S_2  
     e(  3 -  4) =    -27.58391  eV     2   --> B_2  D_4  S_4  
     e(  5 -  6) =    -27.50278  eV     2   --> A_1  D_1  S_1  
     e(  5 -  6) =    -27.50278  eV     2   --> B_1  D_3  S_3  
     e(  7 -  8) =    -27.42994  eV     2   --> A_1  D_1  S_1  
     e(  7 -  8) =    -27.42994  eV     2   --> B_1  D_3  S_3  
     e(  9 -  9) =     -6.26780  eV     1   --> A_1  D_1  S_1  
     e( 10 - 10) =     -6.24955  eV     1   --> B_1  D_3  S_3  
     e( 11 - 11) =     -5.20968  eV     1   --> A_2  D_2  S_2  
     e( 12 - 12) =     -5.17977  eV     1   --> B_2  D_4  S_4  
     e( 13 - 13) =      2.16172  eV     1   --> A_1  D_1  S_1  
     e( 14 - 14) =      2.31612  eV     1   --> B_1  D_3  S_3  
     e( 15 - 15) =      3.99261  eV     1   --> A_1  D_1  S_1  
     e( 16 - 16) =      3.99651  eV     1   --> B_1  D_3  S_3  
     e( 17 - 17) =      4.42965  eV     1   --> A_2  D_2  S_2  
     e( 18 - 18) =      4.61181  eV     1   --> B_2  D_4  S_4  
     e( 19 - 19) =      5.11481  eV     1   --> A_2  D_2  S_2  
     e( 20 - 20) =      5.12686  eV     1   --> B_2  D_4  S_4  
     e( 21 - 21) =      5.19183  eV     1   --> A_1  D_1  S_1  
     e( 22 - 22) =      5.19334  eV     1   --> B_1  D_3  S_3  
     e( 23 - 23) =      6.35802  eV     1   --> A_2  D_2  S_2  
     e( 24 - 24) =      6.60910  eV     1   --> B_2  D_4  S_4  
     e( 25 - 25) =      7.02952  eV     1   --> A_1  D_1  S_1  
     e( 26 - 26) =      7.18097  eV     1   --> B_1  D_3  S_3  
     e( 27 - 27) =      9.55842  eV     1   --> A_1  D_1  S_1  
     e( 28 - 28) =      9.81720  eV     1   --> B_1  D_3  S_3  
     e( 29 - 29) =      9.82768  eV     1   --> A_2  D_2  S_2  
     e( 30 - 30) =      9.93654  eV     1   --> B_2  D_4  S_4  
     e( 31 - 31) =      9.98528  eV     1   --> A_1  D_1  S_1  
     e( 32 - 32) =     10.03348  eV     1   --> B_1  D_3  S_3  
     e( 33 - 33) =     10.85801  eV     1   --> A_2  D_2  S_2  
     e( 34 - 34) =     10.89397  eV     1   --> B_2  D_4  S_4  
     e( 35 - 35) =     14.31086  eV     1   --> A_1  D_1  S_1  
     e( 36 - 36) =     14.89694  eV     1   --> A_2  D_2  S_2  
     e( 37 - 37) =     15.38866  eV     1   --> B_1  D_3  S_3  
     e( 38 - 38) =     15.63225  eV     1   --> A_1  D_1  S_1  
     e( 39 - 39) =     17.18824  eV     1   --> B_1  D_3  S_3  

 **************************************************************************

 **************************************************************************

                    xk=(   0.11667,   0.20207,   0.00000  )

     Band symmetry, C_2v (mm2)  point group:

     e(  1 -  2) =    -53.44805  eV     2   --> A_1  D_1  S_1  
     e(  1 -  2) =    -53.44805  eV     2   --> B_1  D_3  S_3  
     e(  3 -  4) =    -27.57765  eV     2   --> A_2  D_2  S_2  
     e(  3 -  4) =    -27.57765  eV     2   --> B_2  D_4  S_4  
     e(  5 -  6) =    -27.53206  eV     2   --> A_1  D_1  S_1  
     e(  5 -  6) =    -27.53206  eV     2   --> B_1  D_3  S_3  
     e(  7 -  8) =    -27.43928  eV     2   --> A_1  D_1  S_1  
     e(  7 -  8) =    -27.43928  eV     2   --> B_1  D_3  S_3  
     e(  9 -  9) =     -6.12741  eV     1   --> A_1  D_1  S_1  
     e( 10 - 10) =     -6.10954  eV     1   --> B_1  D_3  S_3  
     e( 11 - 11) =     -5.15187  eV     1   --> A_2  D_2  S_2  
     e( 12 - 12) =     -5.12370  eV     1   --> B_2  D_4  S_4  
     e( 13 - 13) =      2.27780  eV     1   --> A_1  D_1  S_1  
     e( 14 - 14) =      2.42426  eV     1   --> B_1  D_3  S_3  
     e( 15 - 15) =      3.81496  eV     1   --> A_1  D_1  S_1  
     e( 16 - 16) =      3.82401  eV     1   --> B_1  D_3  S_3  
     e( 17 - 17) =      4.26308  eV     1   --> A_2  D_2  S_2  
     e( 18 - 18) =      4.42018  eV     1   --> B_2  D_4  S_4  
     e( 19 - 19) =      4.85665  eV     1   --> A_2  D_2  S_2  
     e( 20 - 20) =      4.87703  eV     1   --> B_2  D_4  S_4  
     e( 21 - 21) =      5.30455  eV     1   --> A_1  D_1  S_1  
     e( 22 - 22) =      5.30637  eV     1   --> B_1  D_3  S_3  
     e( 23 - 23) =      6.38238  eV     1   --> A_2  D_2  S_2  
     e( 24 - 24) =      6.60488  eV     1   --> B_2  D_4  S_4  
     e( 25 - 25) =      6.91822  eV     1   --> A_1  D_1  S_1  
     e( 26 - 26) =      7.01760  eV     1   --> B_1  D_3  S_3  
     e( 27 - 27) =      9.43069  eV     1   --> A_1  D_1  S_1  
     e( 28 - 28) =      9.69838  eV     1   --> B_1  D_3  S_3  
     e( 29 - 29) =      9.82388  eV     1   --> A_2  D_2  S_2  
     e( 30 - 30) =      9.89411  eV     1   --> A_1  D_1  S_1  
     e( 31 - 31) =      9.96059  eV     1   --> B_2  D_4  S_4  
     e( 32 - 32) =      9.97669  eV     1   --> B_1  D_3  S_3  
     e( 33 - 33) =     11.04370  eV     1   --> A_2  D_2  S_2  
     e( 34 - 34) =     11.09797  eV     1   --> B_2  D_4  S_4  
     e( 35 - 35) =     14.47950  eV     1   --> A_1  D_1  S_1  
     e( 36 - 36) =     15.00841  eV     1   --> A_2  D_2  S_2  
     e( 37 - 37) =     15.83584  eV     1   --> B_1  D_3  S_3  
     e( 38 - 38) =     16.06172  eV     1   --> A_1  D_1  S_1  
     e( 39 - 39) =     17.05225  eV     1   --> B_1  D_3  S_3  

 **************************************************************************

 **************************************************************************

                    xk=(   0.13333,   0.23094,   0.00000  )

     Band symmetry, C_2v (mm2)  point group:

     e(  1 -  2) =    -53.44473  eV     2   --> A_1  D_1  S_1  
     e(  1 -  2) =    -53.44473  eV     2   --> B_1  D_3  S_3  
     e(  3 -  4) =    -27.57099  eV     2   --> A_2  D_2  S_2  
     e(  3 -  4) =    -27.57099  eV     2   --> B_2  D_4  S_4  
     e(  5 -  6) =    -27.56217  eV     2   --> A_1  D_1  S_1  
     e(  5 -  6) =    -27.56217  eV     2   --> B_1  D_3  S_3  
     e(  7 -  8) =    -27.45004  eV     2   --> A_1  D_1  S_1  
     e(  7 -  8) =    -27.45004  eV     2   --> B_1  D_3  S_3  
     e(  9 -  9) =     -5.97333  eV     1   --> A_1  D_1  S_1  
     e( 10 - 10) =     -5.95596  eV     1   --> B_1  D_3  S_3  
     e( 11 - 11) =     -5.08838  eV     1   --> A_2  D_2  S_2  
     e( 12 - 12) =     -5.06217  eV     1   --> B_2  D_4  S_4  
     e( 13 - 13) =      2.37450  eV     1   --> A_1  D_1  S_1  
     e( 14 - 14) =      2.50673  eV     1   --> B_1  D_3  S_3  
     e( 15 - 15) =      3.67066  eV     1   --> A_1  D_1  S_1  
     e( 16 - 16) =      3.68976  eV     1   --> B_1  D_3  S_3  
     e( 17 - 17) =      4.10280  eV     1   --> A_2  D_2  S_2  
     e( 18 - 18) =      4.22885  eV     1   --> B_2  D_4  S_4  
     e( 19 - 19) =      4.59183  eV     1   --> A_2  D_2  S_2  
     e( 20 - 20) =      4.62921  eV     1   --> B_2  D_4  S_4  
     e( 21 - 21) =      5.39930  eV     1   --> A_1  D_1  S_1  
     e( 22 - 22) =      5.40123  eV     1   --> B_1  D_3  S_3  
     e( 23 - 23) =      6.38314  eV     1   --> A_2  D_2  S_2  
     e( 24 - 24) =      6.57216  eV     1   --> B_2  D_4  S_4  
     e( 25 - 25) =      6.79474  eV     1   --> A_1  D_1  S_1  
     e( 26 - 26) =      6.85339  eV     1   --> B_1  D_3  S_3  
     e( 27 - 27) =      9.33156  eV     1   --> A_1  D_1  S_1  
     e( 28 - 28) =      9.58999  eV     1   --> B_1  D_3  S_3  
     e( 29 - 29) =      9.83499  eV     1   --> A_1  D_1  S_1  
     e( 30 - 30) =      9.85250  eV     1   --> A_2  D_2  S_2  
     e( 31 - 31) =      9.95118  eV     1   --> B_1  D_3  S_3  
     e( 32 - 32) =     10.01374  eV     1   --> B_2  D_4  S_4  
     e( 33 - 33) =     11.22325  eV     1   --> A_2  D_2  S_2  
     e( 34 - 34) =     11.29872  eV     1   --> B_2  D_4  S_4  
     e( 35 - 35) =     14.63540  eV     1   --> A_1  D_1  S_1  
     e( 36 - 36) =     15.12152  eV     1   --> A_2  D_2  S_2  
     e( 37 - 37) =     16.23052  eV     1   --> B_1  D_3  S_3  
     e( 38 - 38) =     16.46403  eV     1   --> A_1  D_1  S_1  
     e( 39 - 39) =     16.92223  eV     1   --> A_1  D_1  S_1  

 **************************************************************************

 **************************************************************************

                    xk=(   0.15000,   0.25981,   0.00000  )

     Band symmetry, C_2v (mm2)  point group:

     e(  1 -  2) =    -53.44132  eV     2   --> A_1  D_1  S_1  
     e(  1 -  2) =    -53.44132  eV     2   --> B_1  D_3  S_3  
     e(  3 -  4) =    -27.59188  eV     2   --> A_1  D_1  S_1  
     e(  3 -  4) =    -27.59188  eV     2   --> B_1  D_3  S_3  
     e(  5 -  6) =    -27.56414  eV     2   --> A_2  D_2  S_2  
     e(  5 -  6) =    -27.56414  eV     2   --> B_2  D_4  S_4  
     e(  7 -  8) =    -27.46221  eV     2   --> A_1  D_1  S_1  
     e(  7 -  8) =    -27.46221  eV     2   --> B_1  D_3  S_3  
     e(  9 -  9) =     -5.80898  eV     1   --> A_1  D_1  S_1  
     e( 10 - 10) =     -5.79227  eV     1   --> B_1  D_3  S_3  
     e( 11 - 11) =     -5.02058  eV     1   --> A_2  D_2  S_2  
     e( 12 - 12) =     -4.99647  eV     1   --> B_2  D_4  S_4  
     e( 13 - 13) =      2.43123  eV     1   --> A_1  D_1  S_1  
     e( 14 - 14) =      2.54134  eV     1   --> B_1  D_3  S_3  
     e( 15 - 15) =      3.58172  eV     1   --> A_1  D_1  S_1  
     e( 16 - 16) =      3.61701  eV     1   --> B_1  D_3  S_3  
     e( 17 - 17) =      3.93039  eV     1   --> A_2  D_2  S_2  
     e( 18 - 18) =      4.01427  eV     1   --> B_2  D_4  S_4  
     e( 19 - 19) =      4.35230  eV     1   --> A_2  D_2  S_2  
     e( 20 - 20) =      4.41995  eV     1   --> B_2  D_4  S_4  
     e( 21 - 21) =      5.45069  eV     1   --> A_1  D_1  S_1  
     e( 22 - 22) =      5.45233  eV     1   --> B_1  D_3  S_3  
     e( 23 - 23) =      6.36012  eV     1   --> A_2  D_2  S_2  
     e( 24 - 24) =      6.51381  eV     1   --> B_2  D_4  S_4  
     e( 25 - 25) =      6.68387  eV     1   --> A_1  D_1  S_1  
     e( 26 - 26) =      6.71423  eV     1   --> B_1  D_3  S_3  
     e( 27 - 27) =      9.26064  eV     1   --> A_1  D_1  S_1  
     e( 28 - 28) =      9.50805  eV     1   --> B_1  D_3  S_3  
     e( 29 - 29) =      9.81657  eV     1   --> A_1  D_1  S_1  
     e( 30 - 30) =      9.91005  eV     1   --> A_2  D_2  S_2  
     e( 31 - 31) =      9.94951  eV     1   --> B_1  D_3  S_3  
     e( 32 - 32) =     10.09057  eV     1   --> B_2  D_4  S_4  
     e( 33 - 33) =     11.38702  eV     1   --> A_2  D_2  S_2  
     e( 34 - 34) =     11.48542  eV     1   --> B_2  D_4  S_4  
     e( 35 - 35) =     14.78055  eV     1   --> A_1  D_1  S_1  
     e( 36 - 36) =     15.23383  eV     1   --> A_2  D_2  S_2  
     e( 37 - 37) =     16.39870  eV     1   --> B_1  D_3  S_3  
     e( 38 - 38) =     16.54283  eV     1   --> A_1  D_1  S_1  
     e( 39 - 39) =     17.04143  eV     1   -->   ?

 **************************************************************************

 **************************************************************************

                    xk=(   0.16667,   0.28868,   0.00000  )

     Band symmetry, C_2v (mm2)  point group:

     e(  1 -  2) =    -53.43791  eV     2   --> A_1  D_1  S_1  
     e(  1 -  2) =    -53.43791  eV     2   --> B_1  D_3  S_3  
     e(  3 -  4) =    -27.62003  eV     2   --> A_1  D_1  S_1  
     e(  3 -  4) =    -27.62003  eV     2   --> B_1  D_3  S_3  
     e(  5 -  6) =    -27.55730  eV     2   --> A_2  D_2  S_2  
     e(  5 -  6) =    -27.55730  eV     2   --> B_2  D_4  S_4  
     e(  7 -  8) =    -27.47573  eV     2   --> A_1  D_1  S_1  
     e(  7 -  8) =    -27.47573  eV     2   --> B_1  D_3  S_3  
     e(  9 -  9) =     -5.63828  eV     1   --> A_1  D_1  S_1  
     e( 10 - 10) =     -5.62239  eV     1   --> B_1  D_3  S_3  
     e( 11 - 11) =     -4.94998  eV     1   --> A_2  D_2  S_2  
     e( 12 - 12) =     -4.92812  eV     1   --> B_2  D_4  S_4  
     e( 13 - 13) =      2.43530  eV     1   --> A_1  D_1  S_1  
     e( 14 - 14) =      2.51968  eV     1   --> B_1  D_3  S_3  
     e( 15 - 15) =      3.56038  eV     1   --> A_1  D_1  S_1  
     e( 16 - 16) =      3.61321  eV     1   --> B_1  D_3  S_3  
     e( 17 - 17) =      3.71620  eV     1   --> A_2  D_2  S_2  
     e( 18 - 18) =      3.76129  eV     1   --> B_2  D_4  S_4  
     e( 19 - 19) =      4.17983  eV     1   --> A_2  D_2  S_2  
     e( 20 - 20) =      4.27597  eV     1   --> B_2  D_4  S_4  
     e( 21 - 21) =      5.43139  eV     1   --> A_1  D_1  S_1  
     e( 22 - 22) =      5.43234  eV     1   --> B_1  D_3  S_3  
     e( 23 - 23) =      6.31354  eV     1   --> A_2  D_2  S_2  
     e( 24 - 24) =      6.43234  eV     1   --> B_2  D_4  S_4  
     e( 25 - 25) =      6.61393  eV     1   --> A_1  D_1  S_1  
     e( 26 - 26) =      6.62708  eV     1   --> B_1  D_3  S_3  
     e( 27 - 27) =      9.22587  eV     1   --> A_1  D_1  S_1  
     e( 28 - 28) =      9.47024  eV     1   --> B_1  D_3  S_3  
     e( 29 - 29) =      9.83403  eV     1   --> A_1  D_1  S_1  
     e( 30 - 30) =      9.95999  eV     1   --> B_1  D_3  S_3  
     e( 31 - 31) =      9.99086  eV     1   --> A_2  D_2  S_2  
     e( 32 - 32) =     10.18418  eV     1   --> B_2  D_4  S_4  
     e( 33 - 33) =     11.52726  eV     1   --> A_2  D_2  S_2  
     e( 34 - 34) =     11.64922  eV     1   --> B_2  D_4  S_4  
     e( 35 - 35) =     14.91177  eV     1   --> A_1  D_1  S_1  
     e( 36 - 36) =     15.34565  eV     1   --> A_2  D_2  S_2  
     e( 37 - 37) =     16.27644  eV     1   --> B_1  D_3  S_3  
     e( 38 - 38) =     16.35103  eV     1   --> A_1  D_1  S_1  
     e( 39 - 39) =     16.87878  eV     1   --> B_2  D_4  S_4  

 **************************************************************************

 **************************************************************************

                    xk=(   0.18333,   0.31754,   0.00000  )

     Band symmetry, C_2v (mm2)  point group:

     e(  1 -  2) =    -53.43459  eV     2   --> A_1  D_1  S_1  
     e(  1 -  2) =    -53.43459  eV     2   --> B_1  D_3  S_3  
     e(  3 -  4) =    -27.64556  eV     2   --> A_1  D_1  S_1  
     e(  3 -  4) =    -27.64556  eV     2   --> B_1  D_3  S_3  
     e(  5 -  6) =    -27.55065  eV     2   --> A_2  D_2  S_2  
     e(  5 -  6) =    -27.55065  eV     2   --> B_2  D_4  S_4  
     e(  7 -  8) =    -27.49053  eV     2   --> A_1  D_1  S_1  
     e(  7 -  8) =    -27.49053  eV     2   --> B_1  D_3  S_3  
     e(  9 -  9) =     -5.46564  eV     1   --> A_1  D_1  S_1  
     e( 10 - 10) =     -5.45074  eV     1   --> B_1  D_3  S_3  
     e( 11 - 11) =     -4.87822  eV     1   --> A_2  D_2  S_2  
     e( 12 - 12) =     -4.85871  eV     1   --> B_2  D_4  S_4  
     e( 13 - 13) =      2.39667  eV     1   --> A_1  D_1  S_1  
     e( 14 - 14) =      2.45946  eV     1   --> B_1  D_3  S_3  
     e( 15 - 15) =      3.46102  eV     1   --> A_2  D_2  S_2  
     e( 16 - 16) =      3.48599  eV     1   --> B_2  D_4  S_4  
     e( 17 - 17) =      3.59487  eV     1   --> A_1  D_1  S_1  
     e( 18 - 18) =      3.65836  eV     1   --> B_1  D_3  S_3  
     e( 19 - 19) =      4.08390  eV     1   --> A_2  D_2  S_2  
     e( 20 - 20) =      4.19112  eV     1   --> B_2  D_4  S_4  
     e( 21 - 21) =      5.33113  eV     1   --> A_1  D_1  S_1  
     e( 22 - 22) =      5.33189  eV     1   --> B_1  D_3  S_3  
     e( 23 - 23) =      6.24428  eV     1   --> A_2  D_2  S_2  
     e( 24 - 24) =      6.33021  eV     1   --> B_2  D_4  S_4  
     e( 25 - 25) =      6.59775  eV     1   --> A_1  D_1  S_1  
     e( 26 - 26) =      6.60220  eV     1   --> B_1  D_3  S_3  
     e( 27 - 27) =      9.23856  eV     1   --> A_1  D_1  S_1  
     e( 28 - 28) =      9.48958  eV     1   --> B_1  D_3  S_3  
     e( 29 - 29) =      9.87351  eV     1   --> A_1  D_1  S_1  
     e( 30 - 30) =      9.97087  eV     1   --> B_1  D_3  S_3  
     e( 31 - 31) =     10.08753  eV     1   --> A_2  D_2  S_2  
     e( 32 - 32) =     10.28670  eV     1   --> B_2  D_4  S_4  
     e( 33 - 33) =     11.63959  eV     1   --> A_2  D_2  S_2  
     e( 34 - 34) =     11.78471  eV     1   --> B_2  D_4  S_4  
     e( 35 - 35) =     15.01931  eV     1   --> A_1  D_1  S_1  
     e( 36 - 36) =     15.46041  eV     1   --> A_2  D_2  S_2  
     e( 37 - 37) =     16.04202  eV     1   --> B_1  D_3  S_3  
     e( 38 - 38) =     16.12764  eV     1   --> A_1  D_1  S_1  
     e( 39 - 39) =     16.76828  eV     1   --> B_2  D_4  S_4  

 **************************************************************************

 **************************************************************************

                    xk=(   0.20000,   0.34641,   0.00000  )

     Band symmetry, C_2v (mm2)  point group:

     e(  1 -  2) =    -53.43147  eV     2   --> A_1  D_1  S_1  
     e(  1 -  2) =    -53.43147  eV     2   --> B_1  D_3  S_3  
     e(  3 -  4) =    -27.66754  eV     2   --> A_1  D_1  S_1  
     e(  3 -  4) =    -27.66754  eV     2   --> B_1  D_3  S_3  
     e(  5 -  6) =    -27.54437  eV     2   --> A_2  D_2  S_2  
     e(  5 -  6) =    -27.54437  eV     2   --> B_2  D_4  S_4  
     e(  7 -  8) =    -27.50652  eV     2   --> A_1  D_1  S_1  
     e(  7 -  8) =    -27.50652  eV     2   --> B_1  D_3  S_3  
     e(  9 -  9) =     -5.29586  eV     1   --> A_1  D_1  S_1  
     e( 10 - 10) =     -5.28219  eV     1   --> B_1  D_3  S_3  
     e( 11 - 11) =     -4.80713  eV     1   --> A_2  D_2  S_2  
     e( 12 - 12) =     -4.79004  eV     1   --> B_2  D_4  S_4  
     e( 13 - 13) =      2.34133  eV     1   --> A_1  D_1  S_1  
     e( 14 - 14) =      2.38945  eV     1   --> B_1  D_3  S_3  
     e( 15 - 15) =      3.19353  eV     1   --> A_2  D_2  S_2  
     e( 16 - 16) =      3.21021  eV     1   --> B_2  D_4  S_4  
     e( 17 - 17) =      3.65678  eV     1   --> A_1  D_1  S_1  
     e( 18 - 18) =      3.72086  eV     1   --> B_1  D_3  S_3  
     e( 19 - 19) =      4.04395  eV     1   --> A_2  D_2  S_2  
     e( 20 - 20) =      4.15139  eV     1   --> B_2  D_4  S_4  
     e( 21 - 21) =      5.16560  eV     1   --> A_1  D_1  S_1  
     e( 22 - 22) =      5.16813  eV     1   --> B_1  D_3  S_3  
     e( 23 - 23) =      6.15409  eV     1   --> A_2  D_2  S_2  
     e( 24 - 24) =      6.21017  eV     1   --> B_2  D_4  S_4  
     e( 25 - 25) =      6.62580  eV     1   --> A_1  D_1  S_1  
     e( 26 - 26) =      6.62723  eV     1   --> B_1  D_3  S_3  
     e( 27 - 27) =      9.30231  eV     1   --> A_1  D_1  S_1  
     e( 28 - 28) =      9.56698  eV     1   --> B_1  D_3  S_3  
     e( 29 - 29) =      9.92066  eV     1   --> A_1  D_1  S_1  
     e( 30 - 30) =      9.97433  eV     1   --> B_1  D_3  S_3  
     e( 31 - 31) =     10.19079  eV     1   --> A_2  D_2  S_2  
     e( 32 - 32) =     10.38929  eV     1   --> B_2  D_4  S_4  
     e( 33 - 33) =     11.72461  eV     1   --> A_2  D_2  S_2  
     e( 34 - 34) =     11.89126  eV     1   --> B_2  D_4  S_4  
     e( 35 - 35) =     15.08346  eV     1   --> A_1  D_1  S_1  
     e( 36 - 36) =     15.58365  eV     1   --> A_2  D_2  S_2  
     e( 37 - 37) =     15.76872  eV     1   --> B_1  D_3  S_3  
     e( 38 - 38) =     15.91541  eV     1   --> A_1  D_1  S_1  
     e( 39 - 39) =     16.71476  eV     1   --> B_2  D_4  S_4  

 **************************************************************************

 **************************************************************************

                    xk=(   0.21667,   0.37528,   0.00000  )

     Band symmetry, C_2v (mm2)  point group:

     e(  1 -  2) =    -53.42861  eV     2   --> A_1  D_1  S_1  
     e(  1 -  2) =    -53.42861  eV     2   --> B_1  D_3  S_3  
     e(  3 -  4) =    -27.68519  eV     2   --> A_1  D_1  S_1  
     e(  3 -  4) =    -27.68519  eV     2   --> B_1  D_3  S_3  
     e(  5 -  6) =    -27.53863  eV     2   --> A_2  D_2  S_2  
     e(  5 -  6) =    -27.53863  eV     2   --> B_2  D_4  S_4  
     e(  7 -  8) =    -27.52355  eV     2   --> A_1  D_1  S_1  
     e(  7 -  8) =    -27.52355  eV     2   --> B_1  D_3  S_3  
     e(  9 -  9) =     -5.13409  eV     1   --> A_1  D_1  S_1  
     e( 10 - 10) =     -5.12183  eV     1   --> B_1  D_3  S_3  
     e( 11 - 11) =     -4.73862  eV     1   --> A_2  D_2  S_2  
     e( 12 - 12) =     -4.72395  eV     1   --> B_2  D_4  S_4  
     e( 13 - 13) =      2.29402  eV     1   --> A_1  D_1  S_1  
     e( 14 - 14) =      2.33281  eV     1   --> B_1  D_3  S_3  
     e( 15 - 15) =      2.93495  eV     1   --> A_2  D_2  S_2  
     e( 16 - 16) =      2.94817  eV     1   --> B_2  D_4  S_4  
     e( 17 - 17) =      3.71970  eV     1   --> A_1  D_1  S_1  
     e( 18 - 18) =      3.77585  eV     1   --> B_1  D_3  S_3  
     e( 19 - 19) =      4.04498  eV     1   --> A_2  D_2  S_2  
     e( 20 - 20) =      4.14840  eV     1   --> B_2  D_4  S_4  
     e( 21 - 21) =      4.95889  eV     1   --> A_1  D_1  S_1  
     e( 22 - 22) =      4.96598  eV     1   --> B_1  D_3  S_3  
     e( 23 - 23) =      6.04571  eV     1   --> A_2  D_2  S_2  
     e( 24 - 24) =      6.07551  eV     1   --> B_2  D_4  S_4  
     e( 25 - 25) =      6.68478  eV     1   --> A_1  D_1  S_1  
     e( 26 - 26) =      6.68694  eV     1   --> B_1  D_3  S_3  
     e( 27 - 27) =      9.40199  eV     1   --> A_1  D_1  S_1  
     e( 28 - 28) =      9.67456  eV     1   --> B_1  D_3  S_3  
     e( 29 - 29) =      9.97071  eV     1   --> A_1  D_1  S_1  
     e( 30 - 30) =      9.98198  eV     1   --> B_1  D_3  S_3  
     e( 31 - 31) =     10.28953  eV     1   --> A_2  D_2  S_2  
     e( 32 - 32) =     10.48241  eV     1   --> B_2  D_4  S_4  
     e( 33 - 33) =     11.78899  eV     1   --> A_2  D_2  S_2  
     e( 34 - 34) =     11.97350  eV     1   --> B_2  D_4  S_4  
     e( 35 - 35) =     15.07464  eV     1   --> A_1  D_1  S_1  
     e( 36 - 36) =     15.48924  eV     1   --> B_1  D_3  S_3  
     e( 37 - 37) =     15.72154  eV     1   --> A_2  D_2  S_2  
     e( 38 - 38) =     15.74116  eV     1   --> A_1  D_1  S_1  
     e( 39 - 39) =     16.71313  eV     1   --> B_2  D_4  S_4  

 **************************************************************************

 **************************************************************************

                    xk=(   0.23333,   0.40415,   0.00000  )

     Band symmetry, C_2v (mm2)  point group:

     e(  1 -  2) =    -53.42608  eV     2   --> A_1  D_1  S_1  
     e(  1 -  2) =    -53.42608  eV     2   --> B_1  D_3  S_3  
     e(  3 -  4) =    -27.69797  eV     2   --> A_1  D_1  S_1  
     e(  3 -  4) =    -27.69797  eV     2   --> B_1  D_3  S_3  
     e(  5 -  6) =    -27.54146  eV     2   --> A_1  D_1  S_1  
     e(  5 -  6) =    -27.54146  eV     2   --> B_1  D_3  S_3  
     e(  7 -  8) =    -27.53355  eV     2   --> A_2  D_2  S_2  
     e(  7 -  8) =    -27.53355  eV     2   --> B_2  D_4  S_4  
     e(  9 -  9) =     -4.98548  eV     1   --> A_1  D_1  S_1  
     e( 10 - 10) =     -4.97482  eV     1   --> B_1  D_3  S_3  
     e( 11 - 11) =     -4.67465  eV     1   --> A_2  D_2  S_2  
     e( 12 - 12) =     -4.66240  eV     1   --> B_2  D_4  S_4  
     e( 13 - 13) =      2.27196  eV     1   --> A_1  D_1  S_1  
     e( 14 - 14) =      2.30472  eV     1   --> B_1  D_3  S_3  
     e( 15 - 15) =      2.69724  eV     1   --> A_2  D_2  S_2  
     e( 16 - 16) =      2.70908  eV     1   --> B_2  D_4  S_4  
     e( 17 - 17) =      3.76676  eV     1   --> A_1  D_1  S_1  
     e( 18 - 18) =      3.80887  eV     1   --> B_1  D_3  S_3  
     e( 19 - 19) =      4.07910  eV     1   --> A_2  D_2  S_2  
     e( 20 - 20) =      4.17675  eV     1   --> B_2  D_4  S_4  
     e( 21 - 21) =      4.72941  eV     1   --> A_1  D_1  S_1  
     e( 22 - 22) =      4.74376  eV     1   --> B_1  D_3  S_3  
     e( 23 - 23) =      5.92289  eV     1   --> A_2  D_2  S_2  
     e( 24 - 24) =      5.93028  eV     1   --> B_2  D_4  S_4  
     e( 25 - 25) =      6.76925  eV     1   --> A_1  D_1  S_1  
     e( 26 - 26) =      6.77456  eV     1   --> B_1  D_3  S_3  
     e( 27 - 27) =      9.49229  eV     1   --> A_1  D_1  S_1  
     e( 28 - 28) =      9.71612  eV     1   --> B_1  D_3  S_3  
     e( 29 - 29) =     10.04342  eV     1   --> A_1  D_1  S_1  
     e( 30 - 30) =     10.06732  eV     1   --> B_1  D_3  S_3  
     e( 31 - 31) =     10.37155  eV     1   --> A_2  D_2  S_2  
     e( 32 - 32) =     10.55667  eV     1   --> B_2  D_4  S_4  
     e( 33 - 33) =     11.84452  eV     1   --> A_2  D_2  S_2  
     e( 34 - 34) =     12.04000  eV     1   --> B_2  D_4  S_4  
     e( 35 - 35) =     14.97825  eV     1   --> A_1  D_1  S_1  
     e( 36 - 36) =     15.22641  eV     1   --> B_1  D_3  S_3  
     e( 37 - 37) =     15.60771  eV     1   --> A_1  D_1  S_1  
     e( 38 - 38) =     15.87917  eV     1   --> A_2  D_2  S_2  
     e( 39 - 39) =     16.63614  eV     1   --> B_1  D_3  S_3  

 **************************************************************************

 **************************************************************************

                    xk=(   0.25000,   0.43301,   0.00000  )

     Band symmetry, C_2v (mm2)  point group:

     e(  1 -  2) =    -53.42392  eV     2   --> A_1  D_1  S_1  
     e(  1 -  2) =    -53.42392  eV     2   --> B_1  D_3  S_3  
     e(  3 -  4) =    -27.70553  eV     2   --> A_1  D_1  S_1  
     e(  3 -  4) =    -27.70553  eV     2   --> B_1  D_3  S_3  
     e(  5 -  6) =    -27.56003  eV     2   --> A_1  D_1  S_1  
     e(  5 -  6) =    -27.56003  eV     2   --> B_1  D_3  S_3  
     e(  7 -  8) =    -27.52922  eV     2   --> A_2  D_2  S_2  
     e(  7 -  8) =    -27.52922  eV     2   --> B_2  D_4  S_4  
     e(  9 -  9) =     -4.85486  eV     1   --> A_1  D_1  S_1  
     e( 10 - 10) =     -4.84594  eV     1   --> B_1  D_3  S_3  
     e( 11 - 11) =     -4.61717  eV     1   --> A_2  D_2  S_2  
     e( 12 - 12) =     -4.60729  eV     1   --> B_2  D_4  S_4  
     e( 13 - 13) =      2.28613  eV     1   --> A_1  D_1  S_1  
     e( 14 - 14) =      2.31466  eV     1   --> B_1  D_3  S_3  
     e( 15 - 15) =      2.48799  eV     1   --> A_2  D_2  S_2  
     e( 16 - 16) =      2.49941  eV     1   --> B_2  D_4  S_4  
     e( 17 - 17) =      3.78953  eV     1   --> A_1  D_1  S_1  
     e( 18 - 18) =      3.81357  eV     1   --> B_1  D_3  S_3  
     e( 19 - 19) =      4.14060  eV     1   --> A_2  D_2  S_2  
     e( 20 - 20) =      4.23138  eV     1   --> B_2  D_4  S_4  
     e( 21 - 21) =      4.49003  eV     1   --> A_1  D_1  S_1  
     e( 22 - 22) =      4.51404  eV     1   --> B_1  D_3  S_3  
     e( 23 - 23) =      5.77938  eV     1   --> B_2  D_4  S_4  
     e( 24 - 24) =      5.79030  eV     1   --> A_2  D_2  S_2  
     e( 25 - 25) =      6.87738  eV     1   --> A_1  D_1  S_1  
     e( 26 - 26) =      6.88698  eV     1   --> B_1  D_3  S_3  
     e( 27 - 27) =      9.51026  eV     1   --> A_1  D_1  S_1  
     e( 28 - 28) =      9.64321  eV     1   --> B_1  D_3  S_3  
     e( 29 - 29) =     10.17755  eV     1   --> A_1  D_1  S_1  
     e( 30 - 30) =     10.25571  eV     1   --> B_1  D_3  S_3  
     e( 31 - 31) =     10.42626  eV     1   --> A_2  D_2  S_2  
     e( 32 - 32) =     10.60501  eV     1   --> B_2  D_4  S_4  
     e( 33 - 33) =     11.90420  eV     1   --> A_2  D_2  S_2  
     e( 34 - 34) =     12.09976  eV     1   --> B_2  D_4  S_4  
     e( 35 - 35) =     14.82268  eV     1   --> A_1  D_1  S_1  
     e( 36 - 36) =     14.99848  eV     1   --> B_1  D_3  S_3  
     e( 37 - 37) =     15.48394  eV     1   --> A_1  D_1  S_1  
     e( 38 - 38) =     16.05947  eV     1   --> A_2  D_2  S_2  
     e( 39 - 39) =     16.29537  eV     1   --> B_1  D_3  S_3  

 **************************************************************************

 **************************************************************************

                    xk=(   0.26667,   0.46188,   0.00000  )

     Band symmetry, C_2v (mm2)  point group:

     e(  1 -  2) =    -53.42217  eV     2   --> A_1  D_1  S_1  
     e(  1 -  2) =    -53.42217  eV     2   --> B_1  D_3  S_3  
     e(  3 -  4) =    -27.70781  eV     2   --> A_1  D_1  S_1  
     e(  3 -  4) =    -27.70781  eV     2   --> B_1  D_3  S_3  
     e(  5 -  6) =    -27.57899  eV     2   --> A_1  D_1  S_1  
     e(  5 -  6) =    -27.57899  eV     2   --> B_1  D_3  S_3  
     e(  7 -  8) =    -27.52571  eV     2   --> A_2  D_2  S_2  
     e(  7 -  8) =    -27.52571  eV     2   --> B_2  D_4  S_4  
     e(  9 -  9) =     -4.74620  eV     1   --> A_1  D_1  S_1  
     e( 10 - 10) =     -4.73913  eV     1   --> B_1  D_3  S_3  
     e( 11 - 11) =     -4.56800  eV     1   --> A_2  D_2  S_2  
     e( 12 - 12) =     -4.56039  eV     1   --> B_2  D_4  S_4  
     e( 13 - 13) =      2.31251  eV     1   --> A_2  D_2  S_2  
     e( 14 - 14) =      2.32398  eV     1   --> B_2  D_4  S_4  
     e( 15 - 15) =      2.34278  eV     1   --> A_1  D_1  S_1  
     e( 16 - 16) =      2.36785  eV     1   --> B_1  D_3  S_3  
     e( 17 - 17) =      3.78277  eV     1   --> A_1  D_1  S_1  
     e( 18 - 18) =      3.78645  eV     1   --> B_1  D_3  S_3  
     e( 19 - 19) =      4.22348  eV     1   --> A_2  D_2  S_2  
     e( 20 - 20) =      4.25393  eV     1   --> A_1  D_1  S_1  
     e( 21 - 21) =      4.28964  eV     1   --> B_1  D_3  S_3  
     e( 22 - 22) =      4.30603  eV     1   --> B_2  D_4  S_4  
     e( 23 - 23) =      5.62899  eV     1   --> B_2  D_4  S_4  
     e( 24 - 24) =      5.65373  eV     1   --> A_2  D_2  S_2  
     e( 25 - 25) =      7.00404  eV     1   --> A_1  D_1  S_1  
     e( 26 - 26) =      7.01783  eV     1   --> B_1  D_3  S_3  
     e( 27 - 27) =      9.44225  eV     1   --> A_1  D_1  S_1  
     e( 28 - 28) =      9.51122  eV     1   --> B_1  D_3  S_3  
     e( 29 - 29) =     10.36980  eV     1   --> A_1  D_1  S_1  
     e( 30 - 30) =     10.44904  eV     1   --> A_2  D_2  S_2  
     e( 31 - 31) =     10.47357  eV     1   --> B_1  D_3  S_3  
     e( 32 - 32) =     10.62534  eV     1   --> B_2  D_4  S_4  
     e( 33 - 33) =     11.97615  eV     1   --> A_2  D_2  S_2  
     e( 34 - 34) =     12.15772  eV     1   --> B_2  D_4  S_4  
     e( 35 - 35) =     14.64978  eV     1   --> A_1  D_1  S_1  
     e( 36 - 36) =     14.82237  eV     1   --> B_1  D_3  S_3  
     e( 37 - 37) =     15.35291  eV     1   --> A_1  D_1  S_1  
     e( 38 - 38) =     15.98492  eV     1   --> B_1  D_3  S_3  
     e( 39 - 39) =     16.26229  eV     1   --> A_2  D_2  S_2  

 **************************************************************************

 **************************************************************************

                    xk=(   0.28333,   0.49075,   0.00000  )

     Band symmetry, C_2v (mm2)  point group:

     e(  1 -  2) =    -53.42085  eV     2   --> A_1  D_1  S_1  
     e(  1 -  2) =    -53.42085  eV     2   --> B_1  D_3  S_3  
     e(  3 -  4) =    -27.70503  eV     2   --> A_1  D_1  S_1  
     e(  3 -  4) =    -27.70503  eV     2   --> B_1  D_3  S_3  
     e(  5 -  6) =    -27.59793  eV     2   --> A_1  D_1  S_1  
     e(  5 -  6) =    -27.59793  eV     2   --> B_1  D_3  S_3  
     e(  7 -  8) =    -27.52304  eV     2   --> A_2  D_2  S_2  
     e(  7 -  8) =    -27.52304  eV     2   --> B_2  D_4  S_4  
     e(  9 -  9) =     -4.66217  eV     1   --> A_1  D_1  S_1  
     e( 10 - 10) =     -4.65699  eV     1   --> B_1  D_3  S_3  
     e( 11 - 11) =     -4.52867  eV     1   --> A_2  D_2  S_2  
     e( 12 - 12) =     -4.52320  eV     1   --> B_2  D_4  S_4  
     e( 13 - 13) =      2.17443  eV     1   --> A_2  D_2  S_2  
     e( 14 - 14) =      2.18622  eV     1   --> B_2  D_4  S_4  
     e( 15 - 15) =      2.44361  eV     1   --> A_1  D_1  S_1  
     e( 16 - 16) =      2.46515  eV     1   --> B_1  D_3  S_3  
     e( 17 - 17) =      3.71802  eV     1   --> B_1  D_3  S_3  
     e( 18 - 18) =      3.73131  eV     1   --> A_1  D_1  S_1  
     e( 19 - 19) =      4.04779  eV     1   --> A_1  D_1  S_1  
     e( 20 - 20) =      4.09266  eV     1   --> B_1  D_3  S_3  
     e( 21 - 21) =      4.31977  eV     1   --> A_2  D_2  S_2  
     e( 22 - 22) =      4.39172  eV     1   --> B_2  D_4  S_4  
     e( 23 - 23) =      5.48749  eV     1   --> B_2  D_4  S_4  
     e( 24 - 24) =      5.52055  eV     1   --> A_2  D_2  S_2  
     e( 25 - 25) =      7.13754  eV     1   --> A_1  D_1  S_1  
     e( 26 - 26) =      7.15459  eV     1   --> B_1  D_3  S_3  
     e( 27 - 27) =      9.32352  eV     1   --> A_1  D_1  S_1  
     e( 28 - 28) =      9.35637  eV     1   --> B_1  D_3  S_3  
     e( 29 - 29) =     10.44404  eV     1   --> A_2  D_2  S_2  
     e( 30 - 30) =     10.57749  eV     1   --> A_1  D_1  S_1  
     e( 31 - 31) =     10.62200  eV     1   --> B_2  D_4  S_4  
     e( 32 - 32) =     10.67477  eV     1   --> B_1  D_3  S_3  
     e( 33 - 33) =     12.05932  eV     1   --> A_2  D_2  S_2  
     e( 34 - 34) =     12.21214  eV     1   --> B_2  D_4  S_4  
     e( 35 - 35) =     14.49341  eV     1   --> A_1  D_1  S_1  
     e( 36 - 36) =     14.71550  eV     1   --> B_1  D_3  S_3  
     e( 37 - 37) =     15.22282  eV     1   --> A_1  D_1  S_1  
     e( 38 - 38) =     15.70285  eV     1   --> B_1  D_3  S_3  
     e( 39 - 39) =     16.48294  eV     1   --> A_2  D_2  S_2  

 **************************************************************************

 **************************************************************************

                    xk=(   0.30000,   0.51962,   0.00000  )

     Band symmetry, C_2v (mm2)  point group:

     e(  1 -  2) =    -53.41993  eV     2   --> A_1  D_1  S_1  
     e(  1 -  2) =    -53.41993  eV     2   --> B_1  D_3  S_3  
     e(  3 -  4) =    -27.69793  eV     2   --> A_1  D_1  S_1  
     e(  3 -  4) =    -27.69793  eV     2   --> B_1  D_3  S_3  
     e(  5 -  6) =    -27.61618  eV     2   --> A_1  D_1  S_1  
     e(  5 -  6) =    -27.61618  eV     2   --> B_1  D_3  S_3  
     e(  7 -  8) =    -27.52122  eV     2   --> A_2  D_2  S_2  
     e(  7 -  8) =    -27.52122  eV     2   --> B_2  D_4  S_4  
     e(  9 -  9) =     -4.60379  eV     1   --> A_1  D_1  S_1  
     e( 10 - 10) =     -4.60045  eV     1   --> B_1  D_3  S_3  
     e( 11 - 11) =     -4.50022  eV     1   --> A_2  D_2  S_2  
     e( 12 - 12) =     -4.49676  eV     1   --> B_2  D_4  S_4  
     e( 13 - 13) =      2.07598  eV     1   --> A_2  D_2  S_2  
     e( 14 - 14) =      2.08818  eV     1   --> B_2  D_4  S_4  
     e( 15 - 15) =      2.58360  eV     1   --> A_1  D_1  S_1  
     e( 16 - 16) =      2.60038  eV     1   --> B_1  D_3  S_3  
     e( 17 - 17) =      3.59317  eV     1   --> B_1  D_3  S_3  
     e( 18 - 18) =      3.60177  eV     1   --> A_1  D_1  S_1  
     e( 19 - 19) =      3.92064  eV     1   --> A_1  D_1  S_1  
     e( 20 - 20) =      3.95503  eV     1   --> B_1  D_3  S_3  
     e( 21 - 21) =      4.41782  eV     1   --> A_2  D_2  S_2  
     e( 22 - 22) =      4.47436  eV     1   --> B_2  D_4  S_4  
     e( 23 - 23) =      5.36748  eV     1   --> B_2  D_4  S_4  
     e( 24 - 24) =      5.40104  eV     1   --> A_2  D_2  S_2  
     e( 25 - 25) =      7.25910  eV     1   --> A_1  D_1  S_1  
     e( 26 - 26) =      7.27810  eV     1   --> B_1  D_3  S_3  
     e( 27 - 27) =      9.19574  eV     1   --> A_1  D_1  S_1  
     e( 28 - 28) =      9.20943  eV     1   --> B_1  D_3  S_3  
     e( 29 - 29) =     10.42272  eV     1   --> A_2  D_2  S_2  
     e( 30 - 30) =     10.60458  eV     1   --> B_2  D_4  S_4  
     e( 31 - 31) =     10.76014  eV     1   --> A_1  D_1  S_1  
     e( 32 - 32) =     10.82956  eV     1   --> B_1  D_3  S_3  
     e( 33 - 33) =     12.14426  eV     1   --> A_2  D_2  S_2  
     e( 34 - 34) =     12.25515  eV     1   --> B_2  D_4  S_4  
     e( 35 - 35) =     14.38148  eV     1   --> A_1  D_1  S_1  
     e( 36 - 36) =     14.69485  eV     1   --> B_1  D_3  S_3  
     e( 37 - 37) =     15.10499  eV     1   --> A_1  D_1  S_1  
     e( 38 - 38) =     15.44137  eV     1   --> B_1  D_3  S_3  
     e( 39 - 39) =     16.70795  eV     1   --> A_2  D_2  S_2  

 **************************************************************************

 **************************************************************************

                    xk=(   0.31667,   0.54848,   0.00000  )

     Band symmetry, C_2v (mm2)  point group:

     e(  1 -  2) =    -53.41941  eV     2   --> A_1  D_1  S_1  
     e(  1 -  2) =    -53.41941  eV     2   --> B_1  D_3  S_3  
     e(  3 -  4) =    -27.68844  eV     2   --> A_1  D_1  S_1  
     e(  3 -  4) =    -27.68844  eV     2   --> B_1  D_3  S_3  
     e(  5 -  6) =    -27.63204  eV     2   --> A_1  D_1  S_1  
     e(  5 -  6) =    -27.63204  eV     2   --> B_1  D_3  S_3  
     e(  7 -  8) =    -27.52017  eV     2   --> A_2  D_2  S_2  
     e(  7 -  8) =    -27.52017  eV     2   --> B_2  D_4  S_4  
     e(  9 -  9) =     -4.57031  eV     1   -->   ?
     e( 10 - 10) =     -4.56872  eV     1   -->   ?
     e( 11 - 11) =     -4.48312  eV     1   --> A_2  D_2  S_2  
     e( 12 - 12) =     -4.48149  eV     1   --> B_2  D_4  S_4  
     e( 13 - 13) =      2.01782  eV     1   --> A_2  D_2  S_2  
     e( 14 - 14) =      2.03037  eV     1   --> B_2  D_4  S_4  
     e( 15 - 15) =      2.74048  eV     1   --> A_1  D_1  S_1  
     e( 16 - 16) =      2.74931  eV     1   --> B_1  D_3  S_3  
     e( 17 - 17) =      3.42930  eV     1   --> A_1  D_1  S_1  
     e( 18 - 18) =      3.43981  eV     1   --> B_1  D_3  S_3  
     e( 19 - 19) =      3.86642  eV     1   --> A_1  D_1  S_1  
     e( 20 - 20) =      3.87966  eV     1   --> B_1  D_3  S_3  
     e( 21 - 21) =      4.49981  eV     1   --> A_2  D_2  S_2  
     e( 22 - 22) =      4.53234  eV     1   --> B_2  D_4  S_4  
     e( 23 - 23) =      5.28803  eV     1   --> B_2  D_4  S_4  
     e( 24 - 24) =      5.31055  eV     1   --> A_2  D_2  S_2  
     e( 25 - 25) =      7.34502  eV     1   --> A_1  D_1  S_1  
     e( 26 - 26) =      7.36472  eV     1   --> B_1  D_3  S_3  
     e( 27 - 27) =      9.09878  eV     1   --> A_1  D_1  S_1  
     e( 28 - 28) =      9.10310  eV     1   --> B_1  D_3  S_3  
     e( 29 - 29) =     10.39961  eV     1   --> A_2  D_2  S_2  
     e( 30 - 30) =     10.58520  eV     1   --> B_2  D_4  S_4  
     e( 31 - 31) =     10.88669  eV     1   --> A_1  D_1  S_1  
     e( 32 - 32) =     10.91916  eV     1   --> B_1  D_3  S_3  
     e( 33 - 33) =     12.21727  eV     1   --> A_2  D_2  S_2  
     e( 34 - 34) =     12.27597  eV     1   --> B_2  D_4  S_4  
     e( 35 - 35) =     14.32995  eV     1   --> A_1  D_1  S_1  
     e( 36 - 36) =     14.77164  eV     1   --> B_1  D_3  S_3  
     e( 37 - 37) =     15.01333  eV     1   --> A_1  D_1  S_1  
     e( 38 - 38) =     15.19343  eV     1   --> B_1  D_3  S_3  
     e( 39 - 39) =     16.90254  eV     1   --> A_2  D_2  S_2  

 **************************************************************************

 **************************************************************************

                    xk=(   0.33333,   0.57735,   0.00000  )

     zone border point and non-symmorphic group 
     symmetry decomposition not available

 **************************************************************************

 **************************************************************************

                    xk=(   0.34167,   0.56292,   0.00000  )

     point group C_2v (mm2) 
     there are  4 classes
     the character table:

       E     C2    s_v   s_v' 
A_1    1.00  1.00  1.00  1.00
A_2    1.00  1.00 -1.00 -1.00
B_1    1.00 -1.00  1.00 -1.00
B_2    1.00 -1.00 -1.00  1.00

     the symmetry operations in each class and the name of the first element:

     E        1
                                                                 
     C2       2
                                                                 
     s_v      4
                                                                 
     s_v'     3
                                                                 

     Band symmetry, C_2v (mm2)  point group:

     e(  1 -  2) =    -53.41928  eV     2   --> A_1  D_1  S_1  
     e(  1 -  2) =    -53.41928  eV     2   --> B_2  D_4  S_4  
     e(  3 -  4) =    -27.68456  eV     2   --> A_1  D_1  S_1  
     e(  3 -  4) =    -27.68456  eV     2   --> B_2  D_4  S_4  
     e(  5 -  6) =    -27.63746  eV     2   --> A_1  D_1  S_1  
     e(  5 -  6) =    -27.63746  eV     2   --> B_2  D_4  S_4  
     e(  7 -  8) =    -27.51992  eV     2   --> A_2  D_2  S_2  
     e(  7 -  8) =    -27.51992  eV     2   --> B_1  D_3  S_3  
     e(  9 -  9) =     -4.56204  eV     1   -->   ?
     e( 10 - 10) =     -4.56131  eV     1   -->   ?
     e( 11 - 11) =     -4.47869  eV     1   -->   ?
     e( 12 - 12) =     -4.47794  eV     1   -->   ?
     e( 13 - 13) =      2.00346  eV     1   --> A_2  D_2  S_2  
     e( 14 - 14) =      2.01610  eV     1   --> B_1  D_3  S_3  
     e( 15 - 15) =      2.80415  eV     1   --> A_1  D_1  S_1  
     e( 16 - 16) =      2.80546  eV     1   --> B_2  D_4  S_4  
     e( 17 - 17) =      3.36112  eV     1   --> A_1  D_1  S_1  
     e( 18 - 18) =      3.37943  eV     1   --> B_2  D_4  S_4  
     e( 19 - 19) =      3.85788  eV     1   --> B_2  D_4  S_4  
     e( 20 - 20) =      3.85934  eV     1   --> A_1  D_1  S_1  
     e( 21 - 21) =      4.52814  eV     1   --> B_1  D_3  S_3  
     e( 22 - 22) =      4.54431  eV     1   --> A_2  D_2  S_2  
     e( 23 - 23) =      5.26967  eV     1   --> A_2  D_2  S_2  
     e( 24 - 24) =      5.28196  eV     1   --> B_1  D_3  S_3  
     e( 25 - 25) =      7.36829  eV     1   --> A_1  D_1  S_1  
     e( 26 - 26) =      7.38806  eV     1   --> B_2  D_4  S_4  
     e( 27 - 27) =      9.07223  eV     1   --> B_2  D_4  S_4  
     e( 28 - 28) =      9.07365  eV     1   --> A_1  D_1  S_1  
     e( 29 - 29) =     10.39239  eV     1   --> A_2  D_2  S_2  
     e( 30 - 30) =     10.57908  eV     1   --> B_1  D_3  S_3  
     e( 31 - 31) =     10.92484  eV     1   --> B_2  D_4  S_4  
     e( 32 - 32) =     10.93612  eV     1   --> A_1  D_1  S_1  
     e( 33 - 33) =     12.24439  eV     1   --> B_1  D_3  S_3  
     e( 34 - 34) =     12.27473  eV     1   --> A_2  D_2  S_2  
     e( 35 - 35) =     14.32105  eV     1   --> A_1  D_1  S_1  
     e( 36 - 36) =     14.83125  eV     1   --> B_2  D_4  S_4  
     e( 37 - 37) =     15.00192  eV     1   --> A_1  D_1  S_1  
     e( 38 - 38) =     15.07518  eV     1   --> B_2  D_4  S_4  
     e( 39 - 39) =     16.97402  eV     1   --> A_2  D_2  S_2  

 **************************************************************************

 **************************************************************************

                    xk=(   0.35000,   0.54848,   0.00000  )

     Band symmetry, C_2v (mm2)  point group:

     e(  1 -  2) =    -53.41939  eV     2   --> A_1  D_1  S_1  
     e(  1 -  2) =    -53.41939  eV     2   --> B_2  D_4  S_4  
     e(  3 -  4) =    -27.68932  eV     2   --> A_1  D_1  S_1  
     e(  3 -  4) =    -27.68932  eV     2   --> B_2  D_4  S_4  
     e(  5 -  6) =    -27.63138  eV     2   --> A_1  D_1  S_1  
     e(  5 -  6) =    -27.63138  eV     2   --> B_2  D_4  S_4  
     e(  7 -  8) =    -27.52014  eV     2   --> A_2  D_2  S_2  
     e(  7 -  8) =    -27.52014  eV     2   --> B_1  D_3  S_3  
     e(  9 -  9) =     -4.56889  eV     1   -->   ?
     e( 10 - 10) =     -4.56747  eV     1   -->   ?
     e( 11 - 11) =     -4.48257  eV     1   --> B_1  D_3  S_3  
     e( 12 - 12) =     -4.48114  eV     1   --> A_2  D_2  S_2  
     e( 13 - 13) =      2.01660  eV     1   --> A_2  D_2  S_2  
     e( 14 - 14) =      2.02908  eV     1   --> B_1  D_3  S_3  
     e( 15 - 15) =      2.73865  eV     1   --> A_1  D_1  S_1  
     e( 16 - 16) =      2.74420  eV     1   --> B_2  D_4  S_4  
     e( 17 - 17) =      3.41801  eV     1   --> A_1  D_1  S_1  
     e( 18 - 18) =      3.42409  eV     1   --> B_2  D_4  S_4  
     e( 19 - 19) =      3.88837  eV     1   --> A_1  D_1  S_1  
     e( 20 - 20) =      3.89021  eV     1   --> B_2  D_4  S_4  
     e( 21 - 21) =      4.50337  eV     1   --> B_1  D_3  S_3  
     e( 22 - 22) =      4.53334  eV     1   --> A_2  D_2  S_2  
     e( 23 - 23) =      5.28402  eV     1   --> A_2  D_2  S_2  
     e( 24 - 24) =      5.30698  eV     1   --> B_1  D_3  S_3  
     e( 25 - 25) =      7.34859  eV     1   --> A_1  D_1  S_1  
     e( 26 - 26) =      7.36857  eV     1   --> B_2  D_4  S_4  
     e( 27 - 27) =      9.09716  eV     1   --> B_2  D_4  S_4  
     e( 28 - 28) =      9.09997  eV     1   --> A_1  D_1  S_1  
     e( 29 - 29) =     10.40335  eV     1   --> A_2  D_2  S_2  
     e( 30 - 30) =     10.58859  eV     1   --> B_1  D_3  S_3  
     e( 31 - 31) =     10.89739  eV     1   --> B_2  D_4  S_4  
     e( 32 - 32) =     10.91586  eV     1   --> A_1  D_1  S_1  
     e( 33 - 33) =     12.21421  eV     1   --> B_1  D_3  S_3  
     e( 34 - 34) =     12.27465  eV     1   --> A_2  D_2  S_2  
     e( 35 - 35) =     14.30802  eV     1   --> A_1  D_1  S_1  
     e( 36 - 36) =     14.71864  eV     1   --> B_2  D_4  S_4  
     e( 37 - 37) =     15.05860  eV     1   --> A_1  D_1  S_1  
     e( 38 - 38) =     15.21499  eV     1   --> B_2  D_4  S_4  
     e( 39 - 39) =     16.91841  eV     1   --> A_2  D_2  S_2  

 **************************************************************************

 **************************************************************************

                    xk=(   0.35833,   0.53405,   0.00000  )

     Band symmetry, C_2v (mm2)  point group:

     e(  1 -  2) =    -53.41956  eV     2   --> A_1  D_1  S_1  
     e(  1 -  2) =    -53.41956  eV     2   --> B_2  D_4  S_4  
     e(  3 -  4) =    -27.69568  eV     2   --> A_1  D_1  S_1  
     e(  3 -  4) =    -27.69568  eV     2   --> B_2  D_4  S_4  
     e(  5 -  6) =    -27.62291  eV     2   --> A_1  D_1  S_1  
     e(  5 -  6) =    -27.62291  eV     2   --> B_2  D_4  S_4  
     e(  7 -  8) =    -27.52048  eV     2   --> A_2  D_2  S_2  
     e(  7 -  8) =    -27.52048  eV     2   --> B_1  D_3  S_3  
     e(  9 -  9) =     -4.57937  eV     1   --> B_2  D_4  S_4  
     e( 10 - 10) =     -4.57731  eV     1   --> A_1  D_1  S_1  
     e( 11 - 11) =     -4.48850  eV     1   --> B_1  D_3  S_3  
     e( 12 - 12) =     -4.48645  eV     1   --> A_2  D_2  S_2  
     e( 13 - 13) =      2.03777  eV     1   --> A_2  D_2  S_2  
     e( 14 - 14) =      2.04993  eV     1   --> B_1  D_3  S_3  
     e( 15 - 15) =      2.65311  eV     1   --> A_1  D_1  S_1  
     e( 16 - 16) =      2.66299  eV     1   --> B_2  D_4  S_4  
     e( 17 - 17) =      3.46538  eV     1   --> B_2  D_4  S_4  
     e( 18 - 18) =      3.47542  eV     1   --> A_1  D_1  S_1  
     e( 19 - 19) =      3.94839  eV     1   --> A_1  D_1  S_1  
     e( 20 - 20) =      3.95736  eV     1   --> B_2  D_4  S_4  
     e( 21 - 21) =      4.47171  eV     1   --> B_1  D_3  S_3  
     e( 22 - 22) =      4.51236  eV     1   --> A_2  D_2  S_2  
     e( 23 - 23) =      5.30852  eV     1   --> A_2  D_2  S_2  
     e( 24 - 24) =      5.33980  eV     1   --> B_1  D_3  S_3  
     e( 25 - 25) =      7.31935  eV     1   --> A_1  D_1  S_1  
     e( 26 - 26) =      7.33973  eV     1   --> B_2  D_4  S_4  
     e( 27 - 27) =      9.13566  eV     1   --> B_2  D_4  S_4  
     e( 28 - 28) =      9.14006  eV     1   --> A_1  D_1  S_1  
     e( 29 - 29) =     10.42305  eV     1   --> A_2  D_2  S_2  
     e( 30 - 30) =     10.60574  eV     1   --> B_1  D_3  S_3  
     e( 31 - 31) =     10.85870  eV     1   --> B_2  D_4  S_4  
     e( 32 - 32) =     10.88027  eV     1   --> A_1  D_1  S_1  
     e( 33 - 33) =     12.17401  eV     1   --> B_1  D_3  S_3  
     e( 34 - 34) =     12.26361  eV     1   --> A_2  D_2  S_2  
     e( 35 - 35) =     14.28189  eV     1   --> A_1  D_1  S_1  
     e( 36 - 36) =     14.60762  eV     1   --> B_2  D_4  S_4  
     e( 37 - 37) =     15.15003  eV     1   --> A_1  D_1  S_1  
     e( 38 - 38) =     15.37336  eV     1   --> B_2  D_4  S_4  
     e( 39 - 39) =     16.83796  eV     1   --> A_2  D_2  S_2  

 **************************************************************************

 **************************************************************************

                    xk=(   0.36667,   0.51962,   0.00000  )

     Band symmetry, C_2v (mm2)  point group:

     e(  1 -  2) =    -53.41978  eV     2   --> A_1  D_1  S_1  
     e(  1 -  2) =    -53.41978  eV     2   --> B_2  D_4  S_4  
     e(  3 -  4) =    -27.70274  eV     2   --> A_1  D_1  S_1  
     e(  3 -  4) =    -27.70274  eV     2   --> B_2  D_4  S_4  
     e(  5 -  6) =    -27.61307  eV     2   --> A_1  D_1  S_1  
     e(  5 -  6) =    -27.61307  eV     2   --> B_2  D_4  S_4  
     e(  7 -  8) =    -27.52092  eV     2   --> A_2  D_2  S_2  
     e(  7 -  8) =    -27.52092  eV     2   --> B_1  D_3  S_3  
     e(  9 -  9) =     -4.59293  eV     1   --> B_2  D_4  S_4  
     e( 10 - 10) =     -4.59028  eV     1   --> A_1  D_1  S_1  
     e( 11 - 11) =     -4.49623  eV     1   --> B_1  D_3  S_3  
     e( 12 - 12) =     -4.49361  eV     1   --> A_2  D_2  S_2  
     e( 13 - 13) =      2.06623  eV     1   --> A_2  D_2  S_2  
     e( 14 - 14) =      2.07788  eV     1   --> B_1  D_3  S_3  
     e( 15 - 15) =      2.55952  eV     1   --> A_1  D_1  S_1  
     e( 16 - 16) =      2.57304  eV     1   --> B_2  D_4  S_4  
     e( 17 - 17) =      3.48900  eV     1   --> B_2  D_4  S_4  
     e( 18 - 18) =      3.51428  eV     1   --> A_1  D_1  S_1  
     e( 19 - 19) =      4.04588  eV     1   --> A_1  D_1  S_1  
     e( 20 - 20) =      4.06184  eV     1   --> B_2  D_4  S_4  
     e( 21 - 21) =      4.43634  eV     1   --> B_1  D_3  S_3  
     e( 22 - 22) =      4.48453  eV     1   --> A_2  D_2  S_2  
     e( 23 - 23) =      5.33947  eV     1   --> A_2  D_2  S_2  
     e( 24 - 24) =      5.37671  eV     1   --> B_1  D_3  S_3  
     e( 25 - 25) =      7.28391  eV     1   --> A_1  D_1  S_1  
     e( 26 - 26) =      7.30485  eV     1   --> B_2  D_4  S_4  
     e( 27 - 27) =      9.18419  eV     1   --> B_2  D_4  S_4  
     e( 28 - 28) =      9.19051  eV     1   --> A_1  D_1  S_1  
     e( 29 - 29) =     10.45239  eV     1   --> A_2  D_2  S_2  
     e( 30 - 30) =     10.63140  eV     1   --> B_1  D_3  S_3  
     e( 31 - 31) =     10.81100  eV     1   --> B_2  D_4  S_4  
     e( 32 - 32) =     10.83194  eV     1   --> A_1  D_1  S_1  
     e( 33 - 33) =     12.12425  eV     1   --> B_1  D_3  S_3  
     e( 34 - 34) =     12.24136  eV     1   --> A_2  D_2  S_2  
     e( 35 - 35) =     14.24401  eV     1   --> A_1  D_1  S_1  
     e( 36 - 36) =     14.49952  eV     1   --> B_2  D_4  S_4  
     e( 37 - 37) =     15.27177  eV     1   --> A_1  D_1  S_1  
     e( 38 - 38) =     15.54704  eV     1   --> B_2  D_4  S_4  
     e( 39 - 39) =     16.74505  eV     1   --> A_2  D_2  S_2  

 **************************************************************************

 **************************************************************************

                    xk=(   0.37500,   0.50518,   0.00000  )

     Band symmetry, C_2v (mm2)  point group:

     e(  1 -  2) =    -53.42005  eV     2   --> A_1  D_1  S_1  
     e(  1 -  2) =    -53.42005  eV     2   --> B_2  D_4  S_4  
     e(  3 -  4) =    -27.71001  eV     2   --> A_1  D_1  S_1  
     e(  3 -  4) =    -27.71001  eV     2   --> B_2  D_4  S_4  
     e(  5 -  6) =    -27.60246  eV     2   --> A_1  D_1  S_1  
     e(  5 -  6) =    -27.60246  eV     2   --> B_2  D_4  S_4  
     e(  7 -  8) =    -27.52145  eV     2   --> A_2  D_2  S_2  
     e(  7 -  8) =    -27.52145  eV     2   --> B_1  D_3  S_3  
     e(  9 -  9) =     -4.60898  eV     1   --> B_2  D_4  S_4  
     e( 10 - 10) =     -4.60579  eV     1   --> A_1  D_1  S_1  
     e( 11 - 11) =     -4.50549  eV     1   --> B_1  D_3  S_3  
     e( 12 - 12) =     -4.50234  eV     1   --> A_2  D_2  S_2  
     e( 13 - 13) =      2.10113  eV     1   --> A_2  D_2  S_2  
     e( 14 - 14) =      2.11204  eV     1   --> B_1  D_3  S_3  
     e( 15 - 15) =      2.46381  eV     1   --> A_1  D_1  S_1  
     e( 16 - 16) =      2.48025  eV     1   --> B_2  D_4  S_4  
     e( 17 - 17) =      3.49557  eV     1   --> B_2  D_4  S_4  
     e( 18 - 18) =      3.53247  eV     1   --> A_1  D_1  S_1  
     e( 19 - 19) =      4.17635  eV     1   --> A_1  D_1  S_1  
     e( 20 - 20) =      4.19650  eV     1   --> B_2  D_4  S_4  
     e( 21 - 21) =      4.39980  eV     1   --> B_1  D_3  S_3  
     e( 22 - 22) =      4.45284  eV     1   --> A_2  D_2  S_2  
     e( 23 - 23) =      5.37345  eV     1   --> A_2  D_2  S_2  
     e( 24 - 24) =      5.41469  eV     1   --> B_1  D_3  S_3  
     e( 25 - 25) =      7.24539  eV     1   --> A_1  D_1  S_1  
     e( 26 - 26) =      7.26697  eV     1   --> B_2  D_4  S_4  
     e( 27 - 27) =      9.23924  eV     1   --> B_2  D_4  S_4  
     e( 28 - 28) =      9.24786  eV     1   --> A_1  D_1  S_1  
     e( 29 - 29) =     10.49210  eV     1   --> A_2  D_2  S_2  
     e( 30 - 30) =     10.66623  eV     1   --> B_1  D_3  S_3  
     e( 31 - 31) =     10.75647  eV     1   --> B_2  D_4  S_4  
     e( 32 - 32) =     10.77356  eV     1   --> A_1  D_1  S_1  
     e( 33 - 33) =     12.06577  eV     1   --> B_1  D_3  S_3  
     e( 34 - 34) =     12.20811  eV     1   --> A_2  D_2  S_2  
     e( 35 - 35) =     14.19731  eV     1   --> A_1  D_1  S_1  
     e( 36 - 36) =     14.39503  eV     1   --> B_2  D_4  S_4  
     e( 37 - 37) =     15.41727  eV     1   --> A_1  D_1  S_1  
     e( 38 - 38) =     15.73356  eV     1   --> B_2  D_4  S_4  
     e( 39 - 39) =     16.64850  eV     1   --> A_2  D_2  S_2  

 **************************************************************************

 **************************************************************************

                    xk=(   0.38333,   0.49075,   0.00000  )

     Band symmetry, C_2v (mm2)  point group:

     e(  1 -  2) =    -53.42036  eV     2   --> A_1  D_1  S_1  
     e(  1 -  2) =    -53.42036  eV     2   --> B_2  D_4  S_4  
     e(  3 -  4) =    -27.71724  eV     2   --> A_1  D_1  S_1  
     e(  3 -  4) =    -27.71724  eV     2   --> B_2  D_4  S_4  
     e(  5 -  6) =    -27.59142  eV     2   --> A_1  D_1  S_1  
     e(  5 -  6) =    -27.59142  eV     2   --> B_2  D_4  S_4  
     e(  7 -  8) =    -27.52206  eV     2   --> A_2  D_2  S_2  
     e(  7 -  8) =    -27.52206  eV     2   --> B_1  D_3  S_3  
     e(  9 -  9) =     -4.62697  eV     1   --> B_2  D_4  S_4  
     e( 10 - 10) =     -4.62327  eV     1   --> A_1  D_1  S_1  
     e( 11 - 11) =     -4.51597  eV     1   --> B_1  D_3  S_3  
     e( 12 - 12) =     -4.51235  eV     1   --> A_2  D_2  S_2  
     e( 13 - 13) =      2.14153  eV     1   --> A_2  D_2  S_2  
     e( 14 - 14) =      2.15143  eV     1   --> B_1  D_3  S_3  
     e( 15 - 15) =      2.36906  eV     1   --> A_1  D_1  S_1  
     e( 16 - 16) =      2.38784  eV     1   --> B_2  D_4  S_4  
     e( 17 - 17) =      3.49067  eV     1   --> B_2  D_4  S_4  
     e( 18 - 18) =      3.53599  eV     1   --> A_1  D_1  S_1  
     e( 19 - 19) =      4.33004  eV     1   --> A_1  D_1  S_1  
     e( 20 - 20) =      4.35186  eV     1   --> B_2  D_4  S_4  
     e( 21 - 21) =      4.36408  eV     1   --> B_1  D_3  S_3  
     e( 22 - 22) =      4.41969  eV     1   --> A_2  D_2  S_2  
     e( 23 - 23) =      5.40768  eV     1   --> A_2  D_2  S_2  
     e( 24 - 24) =      5.45139  eV     1   --> B_1  D_3  S_3  
     e( 25 - 25) =      7.20631  eV     1   --> A_1  D_1  S_1  
     e( 26 - 26) =      7.22852  eV     1   --> B_2  D_4  S_4  
     e( 27 - 27) =      9.29762  eV     1   --> B_2  D_4  S_4  
     e( 28 - 28) =      9.30894  eV     1   --> A_1  D_1  S_1  
     e( 29 - 29) =     10.54259  eV     1   --> A_2  D_2  S_2  
     e( 30 - 30) =     10.69713  eV     1   --> B_2  D_4  S_4  
     e( 31 - 31) =     10.70779  eV     1   --> A_1  D_1  S_1  
     e( 32 - 32) =     10.71063  eV     1   --> B_1  D_3  S_3  
     e( 33 - 33) =     11.99974  eV     1   --> B_1  D_3  S_3  
     e( 34 - 34) =     12.16451  eV     1   --> A_2  D_2  S_2  
     e( 35 - 35) =     14.14456  eV     1   --> A_1  D_1  S_1  
     e( 36 - 36) =     14.29471  eV     1   --> B_2  D_4  S_4  
     e( 37 - 37) =     15.57981  eV     1   --> A_1  D_1  S_1  
     e( 38 - 38) =     15.93074  eV     1   --> B_2  D_4  S_4  
     e( 39 - 39) =     16.55385  eV     1   --> A_2  D_2  S_2  

 **************************************************************************

 **************************************************************************

                    xk=(   0.39167,   0.47631,   0.00000  )

     Band symmetry, C_2v (mm2)  point group:

     e(  1 -  2) =    -53.42069  eV     2   --> A_1  D_1  S_1  
     e(  1 -  2) =    -53.42069  eV     2   --> B_2  D_4  S_4  
     e(  3 -  4) =    -27.72426  eV     2   --> A_1  D_1  S_1  
     e(  3 -  4) =    -27.72426  eV     2   --> B_2  D_4  S_4  
     e(  5 -  6) =    -27.58022  eV     2   --> A_1  D_1  S_1  
     e(  5 -  6) =    -27.58022  eV     2   --> B_2  D_4  S_4  
     e(  7 -  8) =    -27.52272  eV     2   --> A_2  D_2  S_2  
     e(  7 -  8) =    -27.52272  eV     2   --> B_1  D_3  S_3  
     e(  9 -  9) =     -4.64633  eV     1   --> B_2  D_4  S_4  
     e( 10 - 10) =     -4.64218  eV     1   --> A_1  D_1  S_1  
     e( 11 - 11) =     -4.52737  eV     1   --> B_1  D_3  S_3  
     e( 12 - 12) =     -4.52332  eV     1   --> A_2  D_2  S_2  
     e( 13 - 13) =      2.18637  eV     1   --> A_2  D_2  S_2  
     e( 14 - 14) =      2.19494  eV     1   --> B_1  D_3  S_3  
     e( 15 - 15) =      2.27703  eV     1   --> A_1  D_1  S_1  
     e( 16 - 16) =      2.29771  eV     1   --> B_2  D_4  S_4  
     e( 17 - 17) =      3.47888  eV     1   --> B_2  D_4  S_4  
     e( 18 - 18) =      3.53056  eV     1   --> A_1  D_1  S_1  
     e( 19 - 19) =      4.33064  eV     1   --> B_1  D_3  S_3  
     e( 20 - 20) =      4.38692  eV     1   --> A_2  D_2  S_2  
     e( 21 - 21) =      4.49867  eV     1   --> A_1  D_1  S_1  
     e( 22 - 22) =      4.52067  eV     1   --> B_2  D_4  S_4  
     e( 23 - 23) =      5.44009  eV     1   --> A_2  D_2  S_2  
     e( 24 - 24) =      5.48508  eV     1   --> B_1  D_3  S_3  
     e( 25 - 25) =      7.16852  eV     1   --> A_1  D_1  S_1  
     e( 26 - 26) =      7.19124  eV     1   --> B_2  D_4  S_4  
     e( 27 - 27) =      9.35661  eV     1   --> B_2  D_4  S_4  
     e( 28 - 28) =      9.37096  eV     1   --> A_1  D_1  S_1  
     e( 29 - 29) =     10.60401  eV     1   --> A_2  D_2  S_2  
     e( 30 - 30) =     10.63490  eV     1   --> B_2  D_4  S_4  
     e( 31 - 31) =     10.63712  eV     1   --> A_1  D_1  S_1  
     e( 32 - 32) =     10.76471  eV     1   --> B_1  D_3  S_3  
     e( 33 - 33) =     11.92760  eV     1   --> B_1  D_3  S_3  
     e( 34 - 34) =     12.11166  eV     1   --> A_2  D_2  S_2  
     e( 35 - 35) =     14.08779  eV     1   --> A_1  D_1  S_1  
     e( 36 - 36) =     14.19910  eV     1   --> B_2  D_4  S_4  
     e( 37 - 37) =     15.75265  eV     1   --> A_1  D_1  S_1  
     e( 38 - 38) =     16.13662  eV     1   --> B_2  D_4  S_4  
     e( 39 - 39) =     16.46439  eV     1   --> A_2  D_2  S_2  

 **************************************************************************

 **************************************************************************

                    xk=(   0.40000,   0.46188,   0.00000  )

     Band symmetry, C_2v (mm2)  point group:
[...]
     e( 20 - 20) =      5.65712  eV     1   --> A_1            
     e( 21 - 24) =      5.89101  eV     4   --> E_1            
     e( 21 - 24) =      5.89101  eV     4   --> E_2            
     e( 25 - 25) =      7.44576  eV     1   --> A_1            
     e( 26 - 26) =      7.47497  eV     1   --> B_1            
     e( 27 - 30) =     10.17146  eV     4   --> E_1            
     e( 27 - 30) =     10.17146  eV     4   --> E_2            
     e( 31 - 32) =     10.42149  eV     2   --> E_2            
     e( 33 - 34) =     10.42227  eV     2   --> E_1            
     e( 35 - 35) =     13.44941  eV     1   --> A_1            
     e( 36 - 36) =     13.48068  eV     1   --> B_1            
     e( 37 - 37) =     14.42556  eV     1   --> A_1            
     e( 38 - 38) =     14.43407  eV     1   --> B_1            
     e( 39 - 39) =     16.41547  eV     1   --> A_1            

 **************************************************************************

 **************************************************************************

                    xk=(   0.00000,   0.00000,   0.10732  )

     zone border point and non-symmorphic group 
     symmetry decomposition not available

 **************************************************************************

 **************************************************************************

                    xk=(   0.01667,   0.02887,   0.10732  )

     zone border point and non-symmorphic group 
     symmetry decomposition not available

 **************************************************************************

 **************************************************************************

                    xk=(   0.03333,   0.05774,   0.10732  )

     zone border point and non-symmorphic group 
     symmetry decomposition not available

 **************************************************************************

 **************************************************************************

                    xk=(   0.05000,   0.08660,   0.10732  )

     zone border point and non-symmorphic group 
     symmetry decomposition not available

 **************************************************************************

 **************************************************************************

                    xk=(   0.06667,   0.11547,   0.10732  )

     zone border point and non-symmorphic group 
     symmetry decomposition not available

 **************************************************************************

 **************************************************************************

                    xk=(   0.08333,   0.14434,   0.10732  )

     zone border point and non-symmorphic group 
     symmetry decomposition not available

 **************************************************************************

 **************************************************************************

                    xk=(   0.10000,   0.17321,   0.10732  )

     zone border point and non-symmorphic group 
     symmetry decomposition not available

 **************************************************************************

 **************************************************************************

                    xk=(   0.11667,   0.20207,   0.10732  )

     zone border point and non-symmorphic group 
     symmetry decomposition not available

 **************************************************************************

 **************************************************************************

                    xk=(   0.13333,   0.23094,   0.10732  )

     zone border point and non-symmorphic group 
     symmetry decomposition not available

 **************************************************************************

 **************************************************************************

                    xk=(   0.15000,   0.25981,   0.10732  )

     zone border point and non-symmorphic group 
     symmetry decomposition not available

 **************************************************************************

 **************************************************************************

                    xk=(   0.16667,   0.28868,   0.10732  )

     zone border point and non-symmorphic group 
     symmetry decomposition not available

 **************************************************************************

 **************************************************************************

                    xk=(   0.18333,   0.31754,   0.10732  )

     zone border point and non-symmorphic group 
     symmetry decomposition not available

 **************************************************************************

 **************************************************************************

                    xk=(   0.20000,   0.34641,   0.10732  )

     zone border point and non-symmorphic group 
     symmetry decomposition not available

 **************************************************************************

 **************************************************************************

                    xk=(   0.21667,   0.37528,   0.10732  )

     zone border point and non-symmorphic group 
     symmetry decomposition not available

 **************************************************************************

 **************************************************************************

                    xk=(   0.23333,   0.40415,   0.10732  )

     zone border point and non-symmorphic group 
     symmetry decomposition not available

 **************************************************************************

 **************************************************************************

                    xk=(   0.25000,   0.43301,   0.10732  )

     zone border point and non-symmorphic group 
     symmetry decomposition not available

 **************************************************************************

 **************************************************************************

                    xk=(   0.26667,   0.46188,   0.10732  )

     zone border point and non-symmorphic group 
     symmetry decomposition not available

 **************************************************************************

 **************************************************************************

                    xk=(   0.28333,   0.49075,   0.10732  )

     zone border point and non-symmorphic group 
     symmetry decomposition not available

 **************************************************************************

 **************************************************************************

                    xk=(   0.30000,   0.51962,   0.10732  )

     zone border point and non-symmorphic group 
     symmetry decomposition not available

 **************************************************************************

 **************************************************************************

                    xk=(   0.31667,   0.54848,   0.10732  )

     zone border point and non-symmorphic group 
     symmetry decomposition not available

 **************************************************************************

 **************************************************************************

                    xk=(   0.33333,   0.57735,   0.10732  )

     zone border point and non-symmorphic group 
     symmetry decomposition not available

 **************************************************************************

 **************************************************************************

                    xk=(   0.34167,   0.56292,   0.10732  )

     zone border point and non-symmorphic group 
     symmetry decomposition not available

 **************************************************************************

 **************************************************************************

                    xk=(   0.35000,   0.54848,   0.10732  )

     zone border point and non-symmorphic group 
     symmetry decomposition not available

 **************************************************************************

 **************************************************************************

                    xk=(   0.35833,   0.53405,   0.10732  )

     zone border point and non-symmorphic group 
     symmetry decomposition not available

 **************************************************************************

 **************************************************************************

                    xk=(   0.36667,   0.51962,   0.10732  )

     zone border point and non-symmorphic group 
     symmetry decomposition not available

 **************************************************************************

 **************************************************************************

                    xk=(   0.37500,   0.50518,   0.10732  )

     zone border point and non-symmorphic group 
     symmetry decomposition not available

 **************************************************************************

 **************************************************************************

                    xk=(   0.38333,   0.49075,   0.10732  )

     zone border point and non-symmorphic group 
     symmetry decomposition not available

 **************************************************************************

 **************************************************************************

                    xk=(   0.39167,   0.47631,   0.10732  )

     zone border point and non-symmorphic group 
     symmetry decomposition not available

 **************************************************************************

 **************************************************************************

                    xk=(   0.40000,   0.46188,   0.10732  )

     zone border point and non-symmorphic group 
     symmetry decomposition not available

 **************************************************************************

 **************************************************************************

                    xk=(   0.40833,   0.44745,   0.10732  )

     zone border point and non-symmorphic group 
     symmetry decomposition not available

 **************************************************************************

 **************************************************************************

                    xk=(   0.41667,   0.43301,   0.10732  )

     zone border point and non-symmorphic group 
     symmetry decomposition not available

 **************************************************************************

 **************************************************************************

                    xk=(   0.42500,   0.41858,   0.10732  )

     zone border point and non-symmorphic group 
     symmetry decomposition not available

 **************************************************************************

 **************************************************************************

                    xk=(   0.43333,   0.40415,   0.10732  )

     zone border point and non-symmorphic group 
     symmetry decomposition not available

 **************************************************************************

 **************************************************************************

                    xk=(   0.44167,   0.38971,   0.10732  )

     zone border point and non-symmorphic group 
     symmetry decomposition not available

 **************************************************************************

 **************************************************************************

                    xk=(   0.45000,   0.37528,   0.10732  )

     zone border point and non-symmorphic group 
     symmetry decomposition not available

 **************************************************************************

 **************************************************************************

                    xk=(   0.45833,   0.36084,   0.10732  )

     zone border point and non-symmorphic group 
     symmetry decomposition not available

 **************************************************************************

 **************************************************************************

                    xk=(   0.46667,   0.34641,   0.10732  )

     zone border point and non-symmorphic group 
     symmetry decomposition not available

 **************************************************************************

 **************************************************************************

                    xk=(   0.47500,   0.33198,   0.10732  )

     zone border point and non-symmorphic group 
     symmetry decomposition not available

 **************************************************************************

 **************************************************************************

                    xk=(   0.48333,   0.31754,   0.10732  )

     zone border point and non-symmorphic group 
     symmetry decomposition not available

 **************************************************************************

 **************************************************************************

                    xk=(   0.49167,   0.30311,   0.10732  )

     zone border point and non-symmorphic group 
     symmetry decomposition not available

 **************************************************************************

 **************************************************************************

                    xk=(   0.50000,   0.28868,   0.10732  )

     zone border point and non-symmorphic group 
     symmetry decomposition not available

 **************************************************************************

 **************************************************************************

                    xk=(   0.47500,   0.27424,   0.10732  )

     zone border point and non-symmorphic group 
     symmetry decomposition not available

 **************************************************************************

 **************************************************************************

                    xk=(   0.45000,   0.25981,   0.10732  )

     zone border point and non-symmorphic group 
     symmetry decomposition not available

 **************************************************************************

 **************************************************************************

                    xk=(   0.42500,   0.24537,   0.10732  )

     zone border point and non-symmorphic group 
     symmetry decomposition not available

 **************************************************************************

 **************************************************************************

                    xk=(   0.40000,   0.23094,   0.10732  )

     zone border point and non-symmorphic group 
     symmetry decomposition not available

 **************************************************************************

 **************************************************************************

                    xk=(   0.37500,   0.21651,   0.10732  )

     zone border point and non-symmorphic group 
     symmetry decomposition not available

 **************************************************************************

 **************************************************************************

                    xk=(   0.35000,   0.20207,   0.10732  )

     zone border point and non-symmorphic group 
     symmetry decomposition not available

 **************************************************************************

 **************************************************************************

                    xk=(   0.32500,   0.18764,   0.10732  )

     zone border point and non-symmorphic group 
     symmetry decomposition not available

 **************************************************************************

 **************************************************************************

                    xk=(   0.30000,   0.17321,   0.10732  )

     zone border point and non-symmorphic group 
     symmetry decomposition not available

 **************************************************************************

 **************************************************************************

                    xk=(   0.27500,   0.15877,   0.10732  )

     zone border point and non-symmorphic group 
     symmetry decomposition not available

 **************************************************************************

 **************************************************************************

                    xk=(   0.25000,   0.14434,   0.10732  )

     zone border point and non-symmorphic group 
     symmetry decomposition not available

 **************************************************************************

 **************************************************************************

                    xk=(   0.22500,   0.12990,   0.10732  )

     zone border point and non-symmorphic group 
     symmetry decomposition not available

 **************************************************************************

 **************************************************************************

                    xk=(   0.20000,   0.11547,   0.10732  )

     zone border point and non-symmorphic group 
     symmetry decomposition not available

 **************************************************************************

 **************************************************************************

                    xk=(   0.17500,   0.10104,   0.10732  )

     zone border point and non-symmorphic group 
     symmetry decomposition not available

 **************************************************************************

 **************************************************************************

                    xk=(   0.15000,   0.08660,   0.10732  )

     zone border point and non-symmorphic group 
     symmetry decomposition not available

 **************************************************************************

 **************************************************************************

                    xk=(   0.12500,   0.07217,   0.10732  )

     zone border point and non-symmorphic group 
     symmetry decomposition not available

 **************************************************************************

 **************************************************************************

                    xk=(   0.10000,   0.05774,   0.10732  )

     zone border point and non-symmorphic group 
     symmetry decomposition not available

 **************************************************************************

 **************************************************************************

                    xk=(   0.07500,   0.04330,   0.10732  )

     zone border point and non-symmorphic group 
     symmetry decomposition not available

 **************************************************************************

 **************************************************************************

                    xk=(   0.05000,   0.02887,   0.10732  )

     zone border point and non-symmorphic group 
     symmetry decomposition not available

 **************************************************************************

 **************************************************************************

                    xk=(   0.02500,   0.01443,   0.10732  )

     zone border point and non-symmorphic group 
     symmetry decomposition not available

 **************************************************************************

 **************************************************************************

                    xk=(   0.00000,   0.00000,   0.10732  )

     zone border point and non-symmorphic group 
     symmetry decomposition not available

 **************************************************************************
 
     BANDS        :     22.06s CPU     27.70s WALL

 
   This run was terminated on:  13: 3:11  26Nov2023            

=------------------------------------------------------------------------------=
   JOB DONE.
=------------------------------------------------------------------------------=
