
     Program DOS v.7.2 starts on 26Nov2023 at 12:38:14 

     This program is part of the open-source Quantum ESPRESSO suite
     for quantum simulation of materials; please cite
         "P. Giannozzi et al., J. Phys.:Condens. Matter 21 395502 (2009);
         "P. Giannozzi et al., J. Phys.:Condens. Matter 29 465901 (2017);
         "P. Giannozzi et al., J. Chem. Phys. 152 154105 (2020);
          URL http://www.quantum-espresso.org", 
     in publications or presentations arising from this work. More details at
     http://www.quantum-espresso.org/quote

     Parallel version (MPI), running on     4 processors

     MPI processes distributed on     1 nodes
     R & G space division:  proc/nbgrp/npool/nimage =       4
     5847 MiB available memory on the printing compute node when the environment starts
 

     Reading xml data from directory:

     ./DFT-D3/fixed/MoS2.DFT-D3.fixed.save/

     IMPORTANT: XC functional enforced from input :
     Exchange-correlation= PBE
                           (   1   4   3   4   0   0   0)
     Any further DFT definition will be discarded
     Please, verify this is what you really want

 
     Parallelization info
     --------------------
     sticks:   dense  smooth     PW     G-vecs:    dense   smooth      PW
     Min         186      99     31                19312     7489    1438
     Max         187     100     32                19337     7496    1442
     Sum         745     397    127                77279    29969    5759
 
     Using Slab Decomposition
 

     Gaussian broadening (default values): ngauss,degauss=   0    0.000735

 
     DOS          :      1.46s CPU      1.46s WALL

 
   This run was terminated on:  12:38:16  26Nov2023            

=------------------------------------------------------------------------------=
   JOB DONE.
=------------------------------------------------------------------------------=
