
     Program PWSCF v.7.2 starts on 26Nov2023 at 12:23:23 

     This program is part of the open-source Quantum ESPRESSO suite
     for quantum simulation of materials; please cite
         "P. Giannozzi et al., J. Phys.:Condens. Matter 21 395502 (2009);
         "P. Giannozzi et al., J. Phys.:Condens. Matter 29 465901 (2017);
         "P. Giannozzi et al., J. Chem. Phys. 152 154105 (2020);
          URL http://www.quantum-espresso.org", 
     in publications or presentations arising from this work. More details at
     http://www.quantum-espresso.org/quote

     Parallel version (MPI), running on     4 processors

     MPI processes distributed on     1 nodes
     8719 MiB available memory on the printing compute node when the environment starts
 
     Waiting for input...
     Reading input from standard input

     Current dimensions of program PWSCF are:
     Max number of different atomic species (ntypx) = 10
     Max number of k-points (npk) =  40000
     Max angular momentum in pseudopotentials (lmaxx) =  4
 
     R & G space division:  proc/nbgrp/npool/nimage =       4
     Subspace diagonalization in iterative solution of the eigenvalue problem:
     a serial algorithm will be used

 
     Parallelization info
     --------------------
     sticks:   dense  smooth     PW     G-vecs:    dense   smooth      PW
     Min         172      87     27                17362     6149    1073
     Max         174      88     28                17368     6164    1086
     Sum         691     349    109                69455    24621    4307
 
     Using Slab Decomposition
 


     bravais-lattice index     =            4
     lattice parameter (alat)  =       6.0178  a.u.
     unit-cell volume          =     879.3280 (a.u.)^3
     number of atoms/cell      =            6
     number of atomic types    =            2
     number of electrons       =        52.00
     number of Kohn-Sham states=           31
     kinetic-energy cutoff     =      35.0000  Ry
     charge density cutoff     =     280.0000  Ry
     scf convergence threshold =      1.0E-08
     mixing beta               =       0.7000
     number of iterations used =            8  plain     mixing
     Exchange-correlation=  SLA  PW   PBX  PBC
                           (   1   4   3   4   0   0   0)

     celldm(1)=   6.017799  celldm(2)=   0.000000  celldm(3)=   4.659156
     celldm(4)=   0.000000  celldm(5)=   0.000000  celldm(6)=   0.000000

     crystal axes: (cart. coord. in units of alat)
               a(1) = (   1.000000   0.000000   0.000000 )  
               a(2) = (  -0.500000   0.866025   0.000000 )  
               a(3) = (   0.000000   0.000000   4.659156 )  

     reciprocal axes: (cart. coord. in units 2 pi/alat)
               b(1) = (  1.000000  0.577350  0.000000 )  
               b(2) = (  0.000000  1.154701  0.000000 )  
               b(3) = (  0.000000  0.000000  0.214631 )  


     PseudoPot. # 1 for Mo read from file:
     ./Mo_ONCV_PBE-1.0.oncvpsp.upf
     MD5 check sum: 1b5d28e075c9ccadda658a603575cd1f
     Pseudo is Norm-conserving, Zval = 14.0
     Generated using ONCVPSP code by D. R. Hamann
     Using radial grid of 1526 points,  6 beta functions with: 
                l(1) =   0
                l(2) =   0
                l(3) =   1
                l(4) =   1
                l(5) =   2
                l(6) =   2

     PseudoPot. # 2 for S  read from file:
     ./s_pbe_v1.4.uspp.F.UPF
     MD5 check sum: 88d86576ff6df21479756cfb9bdac1df
     Pseudo is Ultrasoft + core correction, Zval =  6.0
     Generated by new atomic code, or converted to UPF format
     Using radial grid of  907 points,  6 beta functions with: 
                l(1) =   0
                l(2) =   0
                l(3) =   1
                l(4) =   1
                l(5) =   2
                l(6) =   2
     Q(r) pseudized with  8 coefficients,  rinner =    1.300   1.300   1.300
                                                       1.300   1.300

     atomic species   valence    mass     pseudopotential
     Mo               14.00    95.95000     Mo( 1.00)
     S                 6.00    32.06500     S ( 1.00)

     24 Sym. Ops., with inversion, found (12 have fractional translation)



   Cartesian axes

     site n.     atom                  positions (alat units)
         1        S      tau(   1) = (  -0.0000005   0.5773506   0.6750597  )
         2        S      tau(   2) = (   0.5000005   0.2886748   3.0046378  )
         3        S      tau(   3) = (  -0.0000005   0.5773506   1.6545185  )
         4        S      tau(   4) = (   0.5000005   0.2886748   3.9840967  )
         5        Mo     tau(   5) = (   0.5000005   0.2886748   1.1647891  )
         6        Mo     tau(   6) = (  -0.0000005   0.5773506   3.4943673  )

     number of k points=    57  Methfessel-Paxton smearing, width (Ry)=  0.0050
                       cart. coord. in units 2pi/alat
        k(    1) = (   0.0000000   0.0000000   0.0000000), wk =   0.0034722
        k(    2) = (   0.0000000   0.0000000   0.0536578), wk =   0.0069444
        k(    3) = (   0.0000000   0.0000000  -0.1073156), wk =   0.0034722
        k(    4) = (   0.0000000   0.0962250   0.0000000), wk =   0.0208333
        k(    5) = (   0.0000000   0.0962250   0.0536578), wk =   0.0416667
        k(    6) = (   0.0000000   0.0962250  -0.1073156), wk =   0.0208333
        k(    7) = (   0.0000000   0.1924501   0.0000000), wk =   0.0208333
        k(    8) = (   0.0000000   0.1924501   0.0536578), wk =   0.0416667
        k(    9) = (   0.0000000   0.1924501  -0.1073156), wk =   0.0208333
        k(   10) = (   0.0000000   0.2886751   0.0000000), wk =   0.0208333
        k(   11) = (   0.0000000   0.2886751   0.0536578), wk =   0.0416667
        k(   12) = (   0.0000000   0.2886751  -0.1073156), wk =   0.0208333
        k(   13) = (   0.0000000   0.3849002   0.0000000), wk =   0.0208333
        k(   14) = (   0.0000000   0.3849002   0.0536578), wk =   0.0416667
        k(   15) = (   0.0000000   0.3849002  -0.1073156), wk =   0.0208333
        k(   16) = (   0.0000000   0.4811252   0.0000000), wk =   0.0208333
        k(   17) = (   0.0000000   0.4811252   0.0536578), wk =   0.0416667
        k(   18) = (   0.0000000   0.4811252  -0.1073156), wk =   0.0208333
        k(   19) = (   0.0000000  -0.5773503   0.0000000), wk =   0.0104167
        k(   20) = (   0.0000000  -0.5773503   0.0536578), wk =   0.0208333
        k(   21) = (   0.0000000  -0.5773503  -0.1073156), wk =   0.0104167
        k(   22) = (   0.0833333   0.1443376   0.0000000), wk =   0.0208333
        k(   23) = (   0.0833333   0.1443376   0.0536578), wk =   0.0416667
        k(   24) = (   0.0833333   0.1443376  -0.1073156), wk =   0.0208333
        k(   25) = (   0.0833333   0.2405626   0.0000000), wk =   0.0416667
        k(   26) = (   0.0833333   0.2405626   0.0536578), wk =   0.0833333
        k(   27) = (   0.0833333   0.2405626  -0.1073156), wk =   0.0416667
        k(   28) = (   0.0833333   0.3367877   0.0000000), wk =   0.0416667
        k(   29) = (   0.0833333   0.3367877   0.0536578), wk =   0.0833333
        k(   30) = (   0.0833333   0.3367877  -0.1073156), wk =   0.0416667
        k(   31) = (   0.0833333   0.4330127   0.0000000), wk =   0.0416667
        k(   32) = (   0.0833333   0.4330127   0.0536578), wk =   0.0833333
        k(   33) = (   0.0833333   0.4330127  -0.1073156), wk =   0.0416667
        k(   34) = (   0.0833333   0.5292377   0.0000000), wk =   0.0416667
        k(   35) = (   0.0833333   0.5292377   0.0536578), wk =   0.0833333
        k(   36) = (   0.0833333   0.5292377  -0.1073156), wk =   0.0416667
        k(   37) = (   0.1666667   0.2886751   0.0000000), wk =   0.0208333
        k(   38) = (   0.1666667   0.2886751   0.0536578), wk =   0.0416667
        k(   39) = (   0.1666667   0.2886751  -0.1073156), wk =   0.0208333
        k(   40) = (   0.1666667   0.3849002   0.0000000), wk =   0.0416667
        k(   41) = (   0.1666667   0.3849002   0.0536578), wk =   0.0833333
        k(   42) = (   0.1666667   0.3849002  -0.1073156), wk =   0.0416667
        k(   43) = (   0.1666667   0.4811252   0.0000000), wk =   0.0416667
        k(   44) = (   0.1666667   0.4811252   0.0536578), wk =   0.0833333
        k(   45) = (   0.1666667   0.4811252  -0.1073156), wk =   0.0416667
        k(   46) = (   0.1666667   0.5773503   0.0000000), wk =   0.0208333
        k(   47) = (   0.1666667   0.5773503   0.0536578), wk =   0.0416667
        k(   48) = (   0.1666667   0.5773503  -0.1073156), wk =   0.0208333
        k(   49) = (   0.2500000   0.4330127   0.0000000), wk =   0.0208333
        k(   50) = (   0.2500000   0.4330127   0.0536578), wk =   0.0416667
        k(   51) = (   0.2500000   0.4330127  -0.1073156), wk =   0.0208333
        k(   52) = (   0.2500000   0.5292377   0.0000000), wk =   0.0416667
        k(   53) = (   0.2500000   0.5292377   0.0536578), wk =   0.0833333
        k(   54) = (   0.2500000   0.5292377  -0.1073156), wk =   0.0416667
        k(   55) = (   0.3333333   0.5773503   0.0000000), wk =   0.0069444
        k(   56) = (   0.3333333   0.5773503   0.0536578), wk =   0.0138889
        k(   57) = (   0.3333333   0.5773503  -0.1073156), wk =   0.0069444

     Dense  grid:    69455 G-vectors     FFT dimensions: (  36,  36, 150)

     Smooth grid:    24621 G-vectors     FFT dimensions: (  24,  24, 108)

     Estimated max dynamical RAM per process >      89.32 MB

     Estimated total dynamical RAM >     357.27 MB

     Initial potential from superposition of free atoms

     starting charge      51.9979, renormalised to      52.0000
     Starting wfcs are   36 randomized atomic wfcs

     total cpu time spent up to now is        0.7 secs

     Self-consistent Calculation

     iteration #  1     ecut=    35.00 Ry     beta= 0.70
     Davidson diagonalization with overlap
     ethr =  1.00E-02,  avg # of iterations =  2.1

     Threshold (ethr) on eigenvalues was too large:
     Diagonalizing with lowered threshold

     Davidson diagonalization with overlap
     ethr =  3.24E-04,  avg # of iterations =  2.1

     total cpu time spent up to now is        3.7 secs

     total energy              =    -370.99688604 Ry
     estimated scf accuracy    <       0.21580967 Ry

     iteration #  2     ecut=    35.00 Ry     beta= 0.70
     Davidson diagonalization with overlap
     ethr =  4.15E-04,  avg # of iterations =  4.0

     total cpu time spent up to now is        5.6 secs

     total energy              =    -370.95000602 Ry
     estimated scf accuracy    <       0.51899287 Ry

     iteration #  3     ecut=    35.00 Ry     beta= 0.70
     Davidson diagonalization with overlap
     ethr =  4.15E-04,  avg # of iterations =  4.6

     total cpu time spent up to now is        7.5 secs

     total energy              =    -371.04889054 Ry
     estimated scf accuracy    <       0.18358374 Ry

     iteration #  4     ecut=    35.00 Ry     beta= 0.70
     Davidson diagonalization with overlap
     ethr =  3.53E-04,  avg # of iterations =  2.1

     total cpu time spent up to now is        8.8 secs

     total energy              =    -371.07343357 Ry
     estimated scf accuracy    <       0.00166072 Ry

     iteration #  5     ecut=    35.00 Ry     beta= 0.70
     Davidson diagonalization with overlap
     c_bands:  1 eigenvalues not converged
     ethr =  3.19E-06,  avg # of iterations =  7.8

     total cpu time spent up to now is       11.0 secs

     total energy              =    -371.07493945 Ry
     estimated scf accuracy    <       0.00384000 Ry

     iteration #  6     ecut=    35.00 Ry     beta= 0.70
     Davidson diagonalization with overlap
     ethr =  3.19E-06,  avg # of iterations =  2.4

     total cpu time spent up to now is       12.3 secs

     total energy              =    -371.07511015 Ry
     estimated scf accuracy    <       0.00036081 Ry

     iteration #  7     ecut=    35.00 Ry     beta= 0.70
     Davidson diagonalization with overlap
     ethr =  6.94E-07,  avg # of iterations =  4.3

     total cpu time spent up to now is       13.8 secs

     total energy              =    -371.07519423 Ry
     estimated scf accuracy    <       0.00001755 Ry

     iteration #  8     ecut=    35.00 Ry     beta= 0.70
     Davidson diagonalization with overlap
     ethr =  3.38E-08,  avg # of iterations =  3.2

     total cpu time spent up to now is       15.3 secs

     total energy              =    -371.07519877 Ry
     estimated scf accuracy    <       0.00000035 Ry

     iteration #  9     ecut=    35.00 Ry     beta= 0.70
     Davidson diagonalization with overlap
     ethr =  6.72E-10,  avg # of iterations =  6.1

     total cpu time spent up to now is       17.7 secs

     total energy              =    -371.07519927 Ry
     estimated scf accuracy    <       0.00000001 Ry

     iteration # 10     ecut=    35.00 Ry     beta= 0.70
     Davidson diagonalization with overlap
     ethr =  2.18E-11,  avg # of iterations =  4.4

     total cpu time spent up to now is       19.4 secs

     End of self-consistent calculation

          k = 0.0000 0.0000 0.0000 (  3089 PWs)   bands (ev):

   -53.4623 -53.4623 -27.6049 -27.6049 -27.4053 -27.4053 -27.4053 -27.4053
    -6.6899  -6.6709  -5.3834  -5.3483   1.7165   1.8794   4.7757   4.7757
     4.7762   4.7762   5.3771   5.8897   5.8898   5.8917   5.8917   5.9484
     7.2354   7.6234  10.1704  10.1704  10.1722  10.1722  10.4175

          k = 0.0000 0.0000 0.0537 (  3083 PWs)   bands (ev):

   -53.4623 -53.4623 -27.6049 -27.6049 -27.4053 -27.4053 -27.4053 -27.4053
    -6.6872  -6.6737  -5.3782  -5.3534   1.7390   1.8541   4.7758   4.7758
     4.7761   4.7761   5.4493   5.8473   5.8900   5.8900   5.8914   5.8915
     7.3112   7.5797  10.1706  10.1707  10.1719  10.1719  10.4183

          k = 0.0000 0.0000-0.1073 (  3076 PWs)   bands (ev):

   -53.4623 -53.4623 -27.6049 -27.6049 -27.4053 -27.4053 -27.4053 -27.4053
    -6.6805  -6.6805  -5.3658  -5.3658   1.7952   1.7952   4.7760   4.7760
     4.7760   4.7760   5.6352   5.6353   5.8907   5.8907   5.8908   5.8908
     7.4601   7.4601  10.1712  10.1712  10.1713  10.1713  10.4217

          k = 0.0000 0.0962 0.0000 (  3091 PWs)   bands (ev):

   -53.4598 -53.4598 -27.5999 -27.5999 -27.4308 -27.4307 -27.4111 -27.4111
    -6.5879  -6.5690  -5.3414  -5.3075   1.8333   1.9955   4.5488   4.5499
     4.8829   4.8837   4.9992   5.2704   5.7268   5.7292   6.1249   6.3969
     7.2097   7.5336  10.0264  10.0552  10.1072  10.2035  10.2999

          k = 0.0000 0.0962 0.0537 (  3085 PWs)   bands (ev):

   -53.4598 -53.4598 -27.5999 -27.5999 -27.4308 -27.4307 -27.4111 -27.4111
    -6.5852  -6.5718  -5.3364  -5.3125   1.8557   1.9702   4.5489   4.5497
     4.8830   4.8836   5.0431   5.2353   5.7272   5.7288   6.1497   6.3349
     7.2763   7.4989  10.0284  10.0463  10.1264  10.1919  10.3016

          k = 0.0000 0.0962-0.1073 (  3086 PWs)   bands (ev):

   -53.4598 -53.4598 -27.5999 -27.5999 -27.4308 -27.4307 -27.4111 -27.4111
    -6.5785  -6.5785  -5.3244  -5.3244   1.9115   1.9115   4.5492   4.5492
     4.8833   4.8833   5.1436   5.1436   5.7280   5.7280   6.2253   6.2253
     7.4018   7.4018  10.0350  10.0350  10.1619  10.1619  10.3058

          k = 0.0000 0.1925 0.0000 (  3074 PWs)   bands (ev):

   -53.4530 -53.4530 -27.5863 -27.5863 -27.4997 -27.4996 -27.4269 -27.4268
    -6.2977  -6.2793  -5.2221  -5.1918   2.1292   2.2839   4.0263   4.0339
     4.4081   4.5801   5.1820   5.1837   5.3428   5.3458   6.2074   6.4824
     7.0454   7.2096   9.5982   9.8709   9.9310  10.0288  10.0439

          k = 0.0000 0.1925 0.0537 (  3085 PWs)   bands (ev):

   -53.4530 -53.4530 -27.5863 -27.5863 -27.4997 -27.4996 -27.4269 -27.4268
    -6.2950  -6.2821  -5.2176  -5.1962   2.1503   2.2596   4.0271   4.0323
     4.4364   4.5578   5.1822   5.1835   5.3432   5.3453   6.2382   6.4284
     7.0814   7.1933   9.6294   9.8049   9.9766  10.0309  10.0417

          k = 0.0000 0.1925-0.1073 (  3098 PWs)   bands (ev):

   -53.4530 -53.4530 -27.5863 -27.5863 -27.4997 -27.4996 -27.4269 -27.4268
    -6.2886  -6.2886  -5.2068  -5.2068   2.2034   2.2034   4.0293   4.0293
     4.5001   4.5001   5.1828   5.1828   5.3443   5.3443   6.3228   6.3228
     7.1462   7.1462   9.7089   9.7089  10.0218  10.0362  10.0363

          k = 0.0000 0.2887 0.0000 (  3088 PWs)   bands (ev):

   -53.4438 -53.4437 -27.5926 -27.5926 -27.5677 -27.5677 -27.4483 -27.4483
    -5.8685  -5.8515  -5.0469  -5.0221   2.3575   2.4678   3.5705   3.6159
     3.7895   3.8930   4.9119   4.9154   5.6018   5.6054   5.9926   6.2046
     6.6685   6.7177   9.4371   9.7584   9.7677   9.7736  10.2062

          k = 0.0000 0.2887 0.0537 (  3093 PWs)   bands (ev):

   -53.4438 -53.4437 -27.5926 -27.5926 -27.5677 -27.5677 -27.4483 -27.4483
    -5.8660  -5.8541  -5.0432  -5.0257   2.3728   2.4508   3.5746   3.6052
     3.8099   3.8814   4.9124   4.9149   5.6024   5.6049   6.0200   6.1689
     6.6791   6.7129   9.4781   9.7058   9.7606   9.7714  10.2547

          k = 0.0000 0.2887-0.1073 (  3078 PWs)   bands (ev):

   -53.4437 -53.4437 -27.5926 -27.5926 -27.5677 -27.5677 -27.4483 -27.4483
    -5.8601  -5.8601  -5.0344  -5.0344   2.4109   2.4109   3.5871   3.5871
     3.8497   3.8497   4.9136   4.9136   5.6036   5.6036   6.0905   6.0906
     6.6987   6.6987   9.5834   9.5834   9.7659   9.7659  10.3434

          k = 0.0000 0.3849 0.0000 (  3074 PWs)   bands (ev):

   -53.4344 -53.4344 -27.6841 -27.6841 -27.5490 -27.5490 -27.4696 -27.4696
    -5.3874  -5.3732  -4.8542  -4.8363   2.1458   2.1931   3.2099   3.2689
     3.4659   3.5529   4.5490   4.5529   5.7280   5.8718   6.0232   6.0299
     6.4192   6.4656   9.6104   9.6222   9.6316   9.8792  10.6734

          k = 0.0000 0.3849 0.0537 (  3065 PWs)   bands (ev):

   -53.4344 -53.4344 -27.6841 -27.6841 -27.5490 -27.5490 -27.4696 -27.4696
    -5.3854  -5.3754  -4.8515  -4.8388   2.1526   2.1860   3.2166   3.2574
     3.4816   3.5422   4.5495   4.5523   5.7475   5.8489   6.0242   6.0289
     6.4276   6.4601   9.6121   9.6205   9.6634   9.8366  10.7193

          k = 0.0000 0.3849-0.1073 (  3060 PWs)   bands (ev):

   -53.4344 -53.4344 -27.6841 -27.6841 -27.5490 -27.5490 -27.4696 -27.4696
    -5.3804  -5.3804  -4.8451  -4.8451   2.1691   2.1691   3.2349   3.2349
     3.5142   3.5142   4.5509   4.5509   5.7965   5.7966   6.0265   6.0265
     6.4452   6.4452   9.6163   9.6163   9.7450   9.7450  10.8198

          k = 0.0000 0.4811 0.0000 (  3076 PWs)   bands (ev):

   -53.4276 -53.4276 -27.7504 -27.7503 -27.5353 -27.5352 -27.4852 -27.4851
    -4.9874  -4.9776  -4.6987  -4.6880   1.7880   1.8181   2.7831   2.8171
     3.3751   3.4565   4.3133   4.3174   5.5727   5.6476   6.3169   6.3272
     6.5870   6.6339   9.6049   9.6114   9.9490  10.0710  11.0399

          k = 0.0000 0.4811 0.0537 (  3081 PWs)   bands (ev):

   -53.4276 -53.4276 -27.7504 -27.7503 -27.5353 -27.5352 -27.4852 -27.4852
    -4.9860  -4.9791  -4.6971  -4.6895   1.7923   1.8136   2.7875   2.8115
     3.3877   3.4452   4.3139   4.3168   5.5831   5.6361   6.3184   6.3257
     6.5945   6.6276   9.6059   9.6105   9.9655  10.0515  11.0773

          k = 0.0000 0.4811-0.1073 (  3066 PWs)   bands (ev):

   -53.4276 -53.4276 -27.7504 -27.7503 -27.5353 -27.5352 -27.4852 -27.4851
    -4.9826  -4.9826  -4.6933  -4.6933   1.8029   1.8029   2.7989   2.7989
     3.4171   3.4171   4.3153   4.3153   5.6090   5.6090   6.3220   6.3221
     6.6116   6.6116   9.6081   9.6081  10.0071  10.0071  11.1686

          k = 0.0000-0.5774 0.0000 (  3064 PWs)   bands (ev):

   -53.4251 -53.4251 -27.7744 -27.7744 -27.5302 -27.5302 -27.4908 -27.4908
    -4.8268  -4.8201  -4.6376  -4.6312   1.6335   1.6611   2.6252   2.6504
     3.3024   3.3794   4.2321   4.2362   5.5401   5.5584   6.4172   6.4293
     6.7744   6.7787   9.6323   9.6361  10.1254  10.1804  11.1638

          k = 0.0000-0.5774 0.0537 (  3068 PWs)   bands (ev):

   -53.4251 -53.4251 -27.7744 -27.7744 -27.5302 -27.5302 -27.4908 -27.4908
    -4.8258  -4.8211  -4.6367  -4.6321   1.6375   1.6570   2.6285   2.6462
     3.3143   3.3686   4.2327   4.2356   5.5427   5.5556   6.4190   6.4275
     6.7751   6.7782   9.6328   9.6355  10.1337  10.1726  11.1960

          k = 0.0000-0.5774-0.1073 (  3088 PWs)   bands (ev):

   -53.4251 -53.4251 -27.7744 -27.7744 -27.5302 -27.5302 -27.4908 -27.4908
    -4.8235  -4.8235  -4.6344  -4.6344   1.6472   1.6472   2.6369   2.6369
     3.3419   3.3419   4.2341   4.2341   5.5491   5.5491   6.4232   6.4233
     6.7767   6.7767   9.6341   9.6342  10.1533  10.1533  11.2793

          k = 0.0833 0.1443 0.0000 (  3091 PWs)   bands (ev):

   -53.4552 -53.4552 -27.5907 -27.5906 -27.4766 -27.4766 -27.4232 -27.4231
    -6.3916  -6.3731  -5.2606  -5.2292   2.0431   2.2017   4.1826   4.1840
     4.6069   4.8139   5.0782   5.0793   5.3473   5.3548   6.3104   6.5816
     7.1148   7.3251   9.7163   9.8637   9.9389   9.9438  10.0915

          k = 0.0833 0.1443 0.0537 (  3093 PWs)   bands (ev):

   -53.4552 -53.4552 -27.5907 -27.5906 -27.4766 -27.4766 -27.4232 -27.4231
    -6.3890  -6.3759  -5.2559  -5.2337   2.0648   2.1768   4.1826   4.1836
     4.6403   4.7865   5.0784   5.0792   5.3483   5.3537   6.3385   6.5242
     7.1616   7.3043   9.7388   9.8428   9.9403   9.9435  10.0946

          k = 0.0833 0.1443-0.1073 (  3088 PWs)   bands (ev):

   -53.4552 -53.4552 -27.5907 -27.5906 -27.4766 -27.4766 -27.4232 -27.4231
    -6.3825  -6.3824  -5.2448  -5.2448   2.1192   2.1193   4.1829   4.1829
     4.7164   4.7164   5.0788   5.0788   5.3509   5.3509   6.4184   6.4184
     7.2443   7.2443   9.7917   9.7917   9.9423   9.9423  10.1029

          k = 0.0833 0.2406 0.0000 (  3089 PWs)   bands (ev):

   -53.4472 -53.4471 -27.5745 -27.5745 -27.5542 -27.5542 -27.4451 -27.4450
    -6.0309  -6.0134  -5.1123  -5.0854   2.3343   2.4711   3.7106   3.7293
     4.1039   4.2341   4.7998   4.8261   5.3907   5.3929   6.3085   6.5163
     6.8321   6.9052   9.3867   9.6574   9.8508   9.9028   9.9392

          k = 0.0833 0.2406 0.0537 (  3090 PWs)   bands (ev):

   -53.4472 -53.4471 -27.5745 -27.5745 -27.5542 -27.5542 -27.4451 -27.4450
    -6.0284  -6.0160  -5.1083  -5.0893   2.3530   2.4496   3.7124   3.7252
     4.1266   4.2182   4.8033   4.8219   5.3910   5.3926   6.3330   6.4772
     6.8497   6.8987   9.4236   9.6126   9.8544   9.8827   9.9766

          k = 0.0833 0.2406-0.1073 (  3094 PWs)   bands (ev):

   -53.4472 -53.4471 -27.5745 -27.5745 -27.5542 -27.5542 -27.4451 -27.4450
    -6.0223  -6.0223  -5.0988  -5.0987   2.3999   2.3999   3.7177   3.7177
     4.1757   4.1757   4.8124   4.8124   5.3918   5.3918   6.3985   6.3985
     6.8790   6.8790   9.5147   9.5147   9.8651   9.8651  10.0236

          k = 0.0833 0.3368 0.0000 (  3079 PWs)   bands (ev):

   -53.4378 -53.4378 -27.6425 -27.6424 -27.5559 -27.5558 -27.4704 -27.4704
    -5.5723  -5.5568  -4.9254  -4.9046   2.3395   2.4088   3.4913   3.5159
     3.5528   3.5882   4.4330   4.4777   5.6459   5.6481   6.0528   6.1861
     6.5489   6.5727   9.3467   9.5484   9.7800   9.9098  10.2724

          k = 0.0833 0.3368 0.0537 (  3075 PWs)   bands (ev):

   -53.4378 -53.4378 -27.6425 -27.6424 -27.5559 -27.5558 -27.4704 -27.4704
    -5.5701  -5.5592  -4.9223  -4.9075   2.3493   2.3984   3.4923   3.5085
     3.5620   3.5856   4.4400   4.4716   5.6462   5.6477   6.0705   6.1643
     6.5537   6.5702   9.3780   9.5218   9.7899   9.8749  10.3179

          k = 0.0833 0.3368-0.1073 (  3084 PWs)   bands (ev):

   -53.4378 -53.4378 -27.6425 -27.6424 -27.5559 -27.5558 -27.4704 -27.4704
    -5.5647  -5.5647  -4.9149  -4.9148   2.3735   2.3735   3.4978   3.4978
     3.5765   3.5765   4.4563   4.4563   5.6469   5.6469   6.1154   6.1154
     6.5630   6.5630   9.4521   9.4521   9.8218   9.8218  10.4012

          k = 0.0833 0.4330 0.0000 (  3057 PWs)   bands (ev):

   -53.4298 -53.4297 -27.7179 -27.7179 -27.5396 -27.5396 -27.4923 -27.4923
    -5.1238  -5.1120  -4.7460  -4.7322   2.0210   2.0557   2.9231   2.9531
     3.4820   3.5637   4.2719   4.3066   5.7538   5.7706   5.7828   5.8310
     6.6470   6.6682   9.5199   9.6292   9.8925   9.9873  10.7546

          k = 0.0833 0.4330 0.0537 (  3069 PWs)   bands (ev):

   -53.4298 -53.4297 -27.7179 -27.7179 -27.5396 -27.5396 -27.4923 -27.4923
    -5.1222  -5.1138  -4.7439  -4.7342   2.0260   2.0505   2.9271   2.9482
     3.4942   3.5518   4.2776   4.3021   5.7571   5.7690   5.7882   5.8227
     6.6504   6.6654   9.5377   9.6153   9.9013   9.9669  10.7905

          k = 0.0833 0.4330-0.1073 (  3062 PWs)   bands (ev):

   -53.4298 -53.4297 -27.7179 -27.7179 -27.5396 -27.5396 -27.4923 -27.4923
    -5.1181  -5.1180  -4.7390  -4.7390   2.0381   2.0381   2.9372   2.9372
     3.5231   3.5231   4.2904   4.2904   5.7637   5.7637   5.8041   5.8041
     6.6582   6.6582   9.5785   9.5785   9.9285   9.9285  10.8695

          k = 0.0833 0.5292 0.0000 (  3090 PWs)   bands (ev):

   -53.4251 -53.4251 -27.7610 -27.7610 -27.5303 -27.5302 -27.5049 -27.5049
    -4.8339  -4.8266  -4.6326  -4.6252   1.7710   1.7985   2.5902   2.6068
     3.3614   3.4366   4.2232   4.2432   5.5728   5.6101   5.9008   5.9128
     6.8892   6.9080   9.6349   9.6656  10.1141  10.1871  11.1651

          k = 0.0833 0.5292 0.0537 (  3076 PWs)   bands (ev):

   -53.4251 -53.4251 -27.7610 -27.7610 -27.5303 -27.5302 -27.5049 -27.5049
    -4.8329  -4.8277  -4.6315  -4.6263   1.7750   1.7945   2.5924   2.6041
     3.3725   3.4256   4.2265   4.2407   5.5778   5.6042   5.9028   5.9112
     6.8920   6.9053   9.6394   9.6611  10.1242  10.1757  11.1924

          k = 0.0833 0.5292-0.1073 (  3068 PWs)   bands (ev):

   -53.4251 -53.4251 -27.7610 -27.7610 -27.5303 -27.5302 -27.5049 -27.5049
    -4.8303  -4.8303  -4.6289  -4.6288   1.7847   1.7847   2.5980   2.5980
     3.3991   3.3991   4.2340   4.2340   5.5905   5.5905   5.9072   5.9072
     6.8988   6.8988   9.6502   9.6503  10.1493  10.1493  11.2556

          k = 0.1667 0.2887 0.0000 (  3091 PWs)   bands (ev):

   -53.4391 -53.4391 -27.6211 -27.6211 -27.5584 -27.5583 -27.4768 -27.4768
    -5.6383  -5.6224  -4.9499  -4.9281   2.4350   2.5194   3.5602   3.6130
     3.7160   3.7611   4.1796   4.2757   5.4311   5.4321   6.3136   6.4324
     6.6134   6.6265   9.2255   9.4698   9.8335   9.9594   9.9905

          k = 0.1667 0.2887 0.0537 (  3079 PWs)   bands (ev):

   -53.4391 -53.4391 -27.6211 -27.6211 -27.5584 -27.5583 -27.4768 -27.4768
    -5.6360  -5.6248  -4.9467  -4.9312   2.4470   2.5066   3.5646   3.5998
     3.7279   3.7575   4.1948   4.2627   5.4312   5.4319   6.3289   6.4124
     6.6166   6.6254   9.2602   9.4325   9.8416   9.9088  10.0531

          k = 0.1667 0.2887-0.1073 (  3080 PWs)   bands (ev):

   -53.4391 -53.4391 -27.6211 -27.6211 -27.5584 -27.5583 -27.4768 -27.4768
    -5.6305  -5.6305  -4.9389  -4.9389   2.4763   2.4763   3.5784   3.5785
     3.7461   3.7461   4.2299   4.2299   5.4316   5.4316   6.3684   6.3684
     6.6219   6.6220   9.3451   9.3451   9.8662   9.8662  10.1214

          k = 0.1667 0.3849 0.0000 (  3064 PWs)   bands (ev):

   -53.4310 -53.4310 -27.6840 -27.6840 -27.5422 -27.5421 -27.5119 -27.5119
    -5.2032  -5.1904  -4.7695  -4.7539   2.2731   2.3146   3.0421   3.0566
     3.6495   3.7168   4.0782   4.1730   5.1678   5.1774   6.0493   6.0979
     6.6553   6.6570   9.3720   9.6246   9.9380   9.9713  10.3150

          k = 0.1667 0.3849 0.0537 (  3065 PWs)   bands (ev):

   -53.4310 -53.4310 -27.6840 -27.6840 -27.5422 -27.5421 -27.5119 -27.5119
    -5.2014  -5.1923  -4.7672  -4.7561   2.2791   2.3084   3.0442   3.0545
     3.6574   3.7044   4.0950   4.1615   5.1692   5.1759   6.0558   6.0901
     6.6556   6.6568   9.4054   9.5830   9.9406   9.9623  10.3526

          k = 0.1667 0.3849-0.1073 (  3058 PWs)   bands (ev):

   -53.4310 -53.4310 -27.6840 -27.6840 -27.5422 -27.5421 -27.5119 -27.5119
    -5.1969  -5.1969  -4.7616  -4.7616   2.2937   2.2937   3.0493   3.0493
     3.6788   3.6788   4.1308   4.1308   5.1725   5.1725   6.0722   6.0723
     6.6563   6.6563   9.4901   9.4901   9.9489   9.9489  10.4271

          k = 0.1667 0.4811 0.0000 (  3061 PWs)   bands (ev):

   -53.4251 -53.4251 -27.7284 -27.7284 -27.5387 -27.5387 -27.5303 -27.5302
    -4.8480  -4.8395  -4.6223  -4.6132   2.0926   2.1202   2.5235   2.5298
     3.5475   3.6110   4.1737   4.2417   5.0401   5.0615   5.6944   5.7255
     6.8965   6.9124   9.5621   9.6638  10.1500  10.2256  10.6779

          k = 0.1667 0.4811 0.0537 (  3071 PWs)   bands (ev):

   -53.4251 -53.4251 -27.7284 -27.7284 -27.5387 -27.5387 -27.5303 -27.5302
    -4.8468  -4.8408  -4.6210  -4.6145   2.0966   2.1161   2.5244   2.5289
     3.5559   3.6007   4.1849   4.2328   5.0433   5.0584   5.6984   5.7204
     6.8989   6.9102   9.5771   9.6491  10.1578  10.2101  10.7054

          k = 0.1667 0.4811-0.1073 (  3060 PWs)   bands (ev):

   -53.4251 -53.4251 -27.7284 -27.7284 -27.5387 -27.5387 -27.5303 -27.5302
    -4.8439  -4.8438  -4.6177  -4.6177   2.1063   2.1063   2.5267   2.5267
     3.5774   3.5774   4.2100   4.2100   5.0509   5.0509   5.7090   5.7090
     6.9047   6.9047   9.6133   9.6133  10.1803  10.1803  10.7652

          k = 0.1667 0.5774 0.0000 (  3080 PWs)   bands (ev):

   -53.4229 -53.4229 -27.7444 -27.7444 -27.5487 -27.5487 -27.5259 -27.5259
    -4.7075  -4.7023  -4.5641  -4.5590   2.0275   2.0519   2.3357   2.3381
     3.4257   3.4899   4.2534   4.3025   5.0456   5.0645   5.5144   5.5579
     7.0707   7.0933   9.5149   9.5391  10.4184  10.4476  10.8504

          k = 0.1667 0.5774 0.0537 (  3074 PWs)   bands (ev):

   -53.4229 -53.4229 -27.7444 -27.7444 -27.5487 -27.5487 -27.5259 -27.5259
    -4.7068  -4.7031  -4.5633  -4.5597   2.0310   2.0483   2.3361   2.3377
     3.4345   3.4799   4.2615   4.2961   5.0485   5.0618   5.5203   5.5511
     7.0741   7.0901   9.5185   9.5356  10.4217  10.4422  10.8692

          k = 0.1667 0.5774-0.1073 (  3072 PWs)   bands (ev):

   -53.4229 -53.4229 -27.7444 -27.7444 -27.5487 -27.5487 -27.5259 -27.5259
    -4.7050  -4.7049  -4.5615  -4.5614   2.0396   2.0396   2.3369   2.3369
     3.4566   3.4567   4.2796   4.2796   5.0552   5.0553   5.5352   5.5352
     7.0822   7.0822   9.5272   9.5272  10.4309  10.4309  10.9156

          k = 0.2500 0.4330 0.0000 (  3066 PWs)   bands (ev):

   -53.4251 -53.4251 -27.7066 -27.7066 -27.5611 -27.5611 -27.5303 -27.5303
    -4.8549  -4.8460  -4.6172  -4.6073   2.2859   2.3145   2.4878   2.4992
     3.7894   3.8135   4.1405   4.2313   4.4899   4.5139   5.7794   5.7903
     6.8768   6.8864   9.5097   9.6426  10.1768  10.2550  10.4259

          k = 0.2500 0.4330 0.0537 (  3062 PWs)   bands (ev):

   -53.4251 -53.4251 -27.7066 -27.7066 -27.5611 -27.5611 -27.5303 -27.5303
    -4.8536  -4.8473  -4.6157  -4.6087   2.2900   2.3102   2.4896   2.4976
     3.7912   3.8078   4.1561   4.2199   4.4935   4.5105   5.7804   5.7882
     6.8782   6.8850   9.5290   9.6231  10.1826  10.2332  10.4621

          k = 0.2500 0.4330-0.1073 (  3068 PWs)   bands (ev):

   -53.4251 -53.4251 -27.7066 -27.7066 -27.5611 -27.5611 -27.5303 -27.5303
    -4.8505  -4.8505  -4.6121  -4.6121   2.3000   2.3000   2.4937   2.4937
     3.7976   3.7977   4.1900   4.1900   4.5021   4.5021   5.7838   5.7838
     6.8817   6.8817   9.5759   9.5759  10.2016  10.2016  10.5284

          k = 0.2500 0.5292 0.0000 (  3058 PWs)   bands (ev):

   -53.4217 -53.4217 -27.7113 -27.7113 -27.5979 -27.5979 -27.5234 -27.5234
    -4.6386  -4.6343  -4.5192  -4.5148   2.1463   2.1573   2.4239   2.4435
     3.5737   3.6096   4.1855   4.2147   4.3512   4.4146   5.4361   5.4746
     7.1824   7.2023   9.2960   9.3170  10.4858  10.6454  10.7147

          k = 0.2500 0.5292 0.0537 (  3063 PWs)   bands (ev):

   -53.4217 -53.4217 -27.7113 -27.7113 -27.5979 -27.5979 -27.5234 -27.5234
    -4.6380  -4.6349  -4.5186  -4.5154   2.1479   2.1556   2.4269   2.4407
     3.5784   3.6038   4.1881   4.2085   4.3637   4.4079   5.4410   5.4683
     7.1853   7.1994   9.2991   9.3140  10.5065  10.6151  10.6736

          k = 0.2500 0.5292-0.1073 (  3058 PWs)   bands (ev):

   -53.4217 -53.4217 -27.7113 -27.7113 -27.5979 -27.5979 -27.5234 -27.5234
    -4.6365  -4.6365  -4.5170  -4.5169   2.1517   2.1517   2.4339   2.4339
     3.5905   3.5905   4.1966   4.1966   4.3886   4.3886   5.4540   5.4540
     7.1923   7.1924   9.3067   9.3067  10.5586  10.5587  10.6930

          k = 0.3333 0.5774 0.0000 (  3030 PWs)   bands (ev):

   -53.4204 -53.4204 -27.6839 -27.6838 -27.6408 -27.6408 -27.5209 -27.5209
    -4.5594  -4.5594  -4.4771  -4.4771   1.9987   2.0114   2.8296   2.8296
     3.3358   3.3587   3.8503   3.8503   4.5427   4.5427   5.2685   5.2686
     7.3747   7.3945   9.0632   9.0632  10.3887  10.5758  10.9382

          k = 0.3333 0.5774 0.0537 (  3051 PWs)   bands (ev):

   -53.4204 -53.4204 -27.6839 -27.6838 -27.6408 -27.6408 -27.5209 -27.5209
    -4.5594  -4.5594  -4.4771  -4.4771   2.0005   2.0095   2.8298   2.8298
     3.3392   3.3554   3.8490   3.8490   4.5452   4.5452   5.2671   5.2671
     7.3776   7.3915   9.0632   9.0632  10.4146  10.5468  10.9392

          k = 0.3333 0.5774-0.1073 (  3048 PWs)   bands (ev):

   -53.4204 -53.4204 -27.6839 -27.6838 -27.6408 -27.6408 -27.5209 -27.5209
    -4.5594  -4.5594  -4.4771  -4.4771   2.0050   2.0050   2.8299   2.8299
     3.3473   3.3473   3.8477   3.8477   4.5476   4.5476   5.2656   5.2657
     7.3844   7.3845   9.0632   9.0632  10.4792  10.4792  10.9401

     the Fermi energy is     8.3446 ev

!    total energy              =    -371.07519928 Ry
     estimated scf accuracy    <          4.1E-09 Ry
     smearing contrib. (-TS)   =       0.00000000 Ry
     internal energy E=F+TS    =    -371.07519928 Ry

     The total energy is F=E-TS. E is the sum of the following terms:
     one-electron contribution =    -317.47071726 Ry
     hartree contribution      =     174.65767106 Ry
     xc contribution           =     -65.12865856 Ry
     ewald contribution        =    -163.13349451 Ry

     convergence has been achieved in  10 iterations

     Forces acting on atoms (cartesian axes, Ry/au):

     atom    1 type  2   force =     0.00000000    0.00000000   -0.00252963
     atom    2 type  2   force =     0.00000000   -0.00000000   -0.00252963
     atom    3 type  2   force =     0.00000000   -0.00000000    0.00252963
     atom    4 type  2   force =    -0.00000000   -0.00000000    0.00252963
     atom    5 type  1   force =     0.00000000   -0.00000000    0.00000000
     atom    6 type  1   force =    -0.00000000   -0.00000000    0.00000000

     Total force =     0.005059     Total SCF correction =     0.000111


     Computing stress (Cartesian axis) and pressure

          total   stress  (Ry/bohr**3)                   (kbar)     P=        2.15
   0.00000769  -0.00000000   0.00000000            1.13       -0.00        0.00
  -0.00000000   0.00000769   0.00000000           -0.00        1.13        0.00
   0.00000000   0.00000000   0.00002844            0.00        0.00        4.18


     Writing all to output data dir ./NovdW/m-p/MoS2.NovdW.m-p.save/
 
     init_run     :      0.57s CPU      0.61s WALL (       1 calls)
     electrons    :     18.09s CPU     18.77s WALL (       1 calls)
     forces       :      0.20s CPU      0.20s WALL (       1 calls)
     stress       :      1.72s CPU      1.77s WALL (       1 calls)

     Called by init_run:
     wfcinit      :      0.38s CPU      0.40s WALL (       1 calls)
     potinit      :      0.01s CPU      0.01s WALL (       1 calls)
     hinit0       :      0.04s CPU      0.04s WALL (       1 calls)

     Called by electrons:
     c_bands      :     15.41s CPU     15.82s WALL (      11 calls)
     sum_band     :      2.31s CPU      2.50s WALL (      11 calls)
     v_of_rho     :      0.09s CPU      0.10s WALL (      11 calls)
     newd         :      0.29s CPU      0.37s WALL (      11 calls)
     mix_rho      :      0.01s CPU      0.01s WALL (      11 calls)

     Called by c_bands:
     init_us_2    :      0.23s CPU      0.24s WALL (    1425 calls)
     init_us_2:cp :      0.23s CPU      0.24s WALL (    1425 calls)
     cegterg      :     13.51s CPU     13.87s WALL (     627 calls)

     Called by *egterg:
     cdiaghg      :      1.69s CPU      1.74s WALL (    3016 calls)
     h_psi        :      9.27s CPU      9.51s WALL (    3130 calls)
     s_psi        :      0.74s CPU      0.76s WALL (    3130 calls)
     g_psi        :      0.05s CPU      0.05s WALL (    2446 calls)

     Called by h_psi:
     h_psi:calbec :      0.87s CPU      0.89s WALL (    3130 calls)
     vloc_psi     :      7.58s CPU      7.78s WALL (    3130 calls)
     add_vuspsi   :      0.76s CPU      0.78s WALL (    3130 calls)

     General routines
     calbec       :      1.29s CPU      1.34s WALL (    4042 calls)
     fft          :      0.04s CPU      0.05s WALL (     167 calls)
     ffts         :      0.00s CPU      0.00s WALL (      22 calls)
     fftw         :      7.16s CPU      7.36s WALL (  133119 calls)
     interpolate  :      0.00s CPU      0.00s WALL (      11 calls)
 
     Parallel routines
 
     PWSCF        :     20.65s CPU     21.48s WALL

 
   This run was terminated on:  12:23:45  26Nov2023            

=------------------------------------------------------------------------------=
   JOB DONE.
=------------------------------------------------------------------------------=
