
     Program PWSCF v.7.2 starts on 26Nov2023 at 16:38:17 

     This program is part of the open-source Quantum ESPRESSO suite
     for quantum simulation of materials; please cite
         "P. Giannozzi et al., J. Phys.:Condens. Matter 21 395502 (2009);
         "P. Giannozzi et al., J. Phys.:Condens. Matter 29 465901 (2017);
         "P. Giannozzi et al., J. Chem. Phys. 152 154105 (2020);
          URL http://www.quantum-espresso.org", 
     in publications or presentations arising from this work. More details at
     http://www.quantum-espresso.org/quote

     Parallel version (MPI), running on     4 processors

     MPI processes distributed on     1 nodes
     2403 MiB available memory on the printing compute node when the environment starts
 
     Waiting for input...
     Reading input from standard input

     Current dimensions of program PWSCF are:
     Max number of different atomic species (ntypx) = 10
     Max number of k-points (npk) =  40000
     Max angular momentum in pseudopotentials (lmaxx) =  4
 
     R & G space division:  proc/nbgrp/npool/nimage =       4
     Subspace diagonalization in iterative solution of the eigenvalue problem:
     a serial algorithm will be used

 
     Parallelization info
     --------------------
     sticks:   dense  smooth     PW     G-vecs:    dense   smooth      PW
     Min         172      87     27                17362     6149    1073
     Max         174      88     28                17368     6164    1086
     Sum         691     349    109                69455    24621    4307
 
     Using Slab Decomposition
 


     bravais-lattice index     =            4
     lattice parameter (alat)  =       6.0178  a.u.
     unit-cell volume          =     879.3280 (a.u.)^3
     number of atoms/cell      =            6
     number of atomic types    =            2
     number of electrons       =        52.00
     number of Kohn-Sham states=           31
     kinetic-energy cutoff     =      35.0000  Ry
     charge density cutoff     =     280.0000  Ry
     scf convergence threshold =      1.0E-08
     mixing beta               =       0.7000
     number of iterations used =            8  plain     mixing
     Exchange-correlation=  SLA  PW   PBX  PBC
                           (   1   4   3   4   0   0   0)

     celldm(1)=   6.017799  celldm(2)=   0.000000  celldm(3)=   4.659156
     celldm(4)=   0.000000  celldm(5)=   0.000000  celldm(6)=   0.000000

     crystal axes: (cart. coord. in units of alat)
               a(1) = (   1.000000   0.000000   0.000000 )  
               a(2) = (  -0.500000   0.866025   0.000000 )  
               a(3) = (   0.000000   0.000000   4.659156 )  

     reciprocal axes: (cart. coord. in units 2 pi/alat)
               b(1) = (  1.000000  0.577350  0.000000 )  
               b(2) = (  0.000000  1.154701  0.000000 )  
               b(3) = (  0.000000  0.000000  0.214631 )  


     PseudoPot. # 1 for Mo read from file:
     ./Mo_ONCV_PBE-1.0.oncvpsp.upf
     MD5 check sum: 1b5d28e075c9ccadda658a603575cd1f
     Pseudo is Norm-conserving, Zval = 14.0
     Generated using ONCVPSP code by D. R. Hamann
     Using radial grid of 1526 points,  6 beta functions with: 
                l(1) =   0
                l(2) =   0
                l(3) =   1
                l(4) =   1
                l(5) =   2
                l(6) =   2

     PseudoPot. # 2 for S  read from file:
     ./s_pbe_v1.4.uspp.F.UPF
     MD5 check sum: 88d86576ff6df21479756cfb9bdac1df
     Pseudo is Ultrasoft + core correction, Zval =  6.0
     Generated by new atomic code, or converted to UPF format
     Using radial grid of  907 points,  6 beta functions with: 
                l(1) =   0
                l(2) =   0
                l(3) =   1
                l(4) =   1
                l(5) =   2
                l(6) =   2
     Q(r) pseudized with  8 coefficients,  rinner =    1.300   1.300   1.300
                                                       1.300   1.300

     atomic species   valence    mass     pseudopotential
     Mo               14.00    95.95000     Mo( 1.00)
     S                 6.00    32.06500     S ( 1.00)

     24 Sym. Ops., with inversion, found (12 have fractional translation)



   Cartesian axes

     site n.     atom                  positions (alat units)
         1        S      tau(   1) = (  -0.0000005   0.5773506   0.6750597  )
         2        S      tau(   2) = (   0.5000005   0.2886748   3.0046378  )
         3        S      tau(   3) = (  -0.0000005   0.5773506   1.6545185  )
         4        S      tau(   4) = (   0.5000005   0.2886748   3.9840967  )
         5        Mo     tau(   5) = (   0.5000005   0.2886748   1.1647891  )
         6        Mo     tau(   6) = (  -0.0000005   0.5773506   3.4943673  )

     number of k points=    76  Methfessel-Paxton smearing, width (Ry)=  0.0050
                       cart. coord. in units 2pi/alat
        k(    1) = (   0.0000000   0.0000000   0.0000000), wk =   0.0023148
        k(    2) = (   0.0000000   0.0000000   0.0357719), wk =   0.0046296
        k(    3) = (   0.0000000   0.0000000   0.0715437), wk =   0.0046296
        k(    4) = (   0.0000000   0.0000000  -0.1073156), wk =   0.0023148
        k(    5) = (   0.0000000   0.0962250   0.0000000), wk =   0.0138889
        k(    6) = (   0.0000000   0.0962250   0.0357719), wk =   0.0277778
        k(    7) = (   0.0000000   0.0962250   0.0715437), wk =   0.0277778
        k(    8) = (   0.0000000   0.0962250  -0.1073156), wk =   0.0138889
        k(    9) = (   0.0000000   0.1924501   0.0000000), wk =   0.0138889
        k(   10) = (   0.0000000   0.1924501   0.0357719), wk =   0.0277778
        k(   11) = (   0.0000000   0.1924501   0.0715437), wk =   0.0277778
        k(   12) = (   0.0000000   0.1924501  -0.1073156), wk =   0.0138889
        k(   13) = (   0.0000000   0.2886751   0.0000000), wk =   0.0138889
        k(   14) = (   0.0000000   0.2886751   0.0357719), wk =   0.0277778
        k(   15) = (   0.0000000   0.2886751   0.0715437), wk =   0.0277778
        k(   16) = (   0.0000000   0.2886751  -0.1073156), wk =   0.0138889
        k(   17) = (   0.0000000   0.3849002   0.0000000), wk =   0.0138889
        k(   18) = (   0.0000000   0.3849002   0.0357719), wk =   0.0277778
        k(   19) = (   0.0000000   0.3849002   0.0715437), wk =   0.0277778
        k(   20) = (   0.0000000   0.3849002  -0.1073156), wk =   0.0138889
        k(   21) = (   0.0000000   0.4811252   0.0000000), wk =   0.0138889
        k(   22) = (   0.0000000   0.4811252   0.0357719), wk =   0.0277778
        k(   23) = (   0.0000000   0.4811252   0.0715437), wk =   0.0277778
        k(   24) = (   0.0000000   0.4811252  -0.1073156), wk =   0.0138889
        k(   25) = (   0.0000000  -0.5773503   0.0000000), wk =   0.0069444
        k(   26) = (   0.0000000  -0.5773503   0.0357719), wk =   0.0138889
        k(   27) = (   0.0000000  -0.5773503   0.0715437), wk =   0.0138889
        k(   28) = (   0.0000000  -0.5773503  -0.1073156), wk =   0.0069444
        k(   29) = (   0.0833333   0.1443376   0.0000000), wk =   0.0138889
        k(   30) = (   0.0833333   0.1443376   0.0357719), wk =   0.0277778
        k(   31) = (   0.0833333   0.1443376   0.0715437), wk =   0.0277778
        k(   32) = (   0.0833333   0.1443376  -0.1073156), wk =   0.0138889
        k(   33) = (   0.0833333   0.2405626   0.0000000), wk =   0.0277778
        k(   34) = (   0.0833333   0.2405626   0.0357719), wk =   0.0555556
        k(   35) = (   0.0833333   0.2405626   0.0715437), wk =   0.0555556
        k(   36) = (   0.0833333   0.2405626  -0.1073156), wk =   0.0277778
        k(   37) = (   0.0833333   0.3367877   0.0000000), wk =   0.0277778
        k(   38) = (   0.0833333   0.3367877   0.0357719), wk =   0.0555556
        k(   39) = (   0.0833333   0.3367877   0.0715437), wk =   0.0555556
        k(   40) = (   0.0833333   0.3367877  -0.1073156), wk =   0.0277778
        k(   41) = (   0.0833333   0.4330127   0.0000000), wk =   0.0277778
        k(   42) = (   0.0833333   0.4330127   0.0357719), wk =   0.0555556
        k(   43) = (   0.0833333   0.4330127   0.0715437), wk =   0.0555556
        k(   44) = (   0.0833333   0.4330127  -0.1073156), wk =   0.0277778
        k(   45) = (   0.0833333   0.5292377   0.0000000), wk =   0.0277778
        k(   46) = (   0.0833333   0.5292377   0.0357719), wk =   0.0555556
        k(   47) = (   0.0833333   0.5292377   0.0715437), wk =   0.0555556
        k(   48) = (   0.0833333   0.5292377  -0.1073156), wk =   0.0277778
        k(   49) = (   0.1666667   0.2886751   0.0000000), wk =   0.0138889
        k(   50) = (   0.1666667   0.2886751   0.0357719), wk =   0.0277778
        k(   51) = (   0.1666667   0.2886751   0.0715437), wk =   0.0277778
        k(   52) = (   0.1666667   0.2886751  -0.1073156), wk =   0.0138889
        k(   53) = (   0.1666667   0.3849002   0.0000000), wk =   0.0277778
        k(   54) = (   0.1666667   0.3849002   0.0357719), wk =   0.0555556
        k(   55) = (   0.1666667   0.3849002   0.0715437), wk =   0.0555556
        k(   56) = (   0.1666667   0.3849002  -0.1073156), wk =   0.0277778
        k(   57) = (   0.1666667   0.4811252   0.0000000), wk =   0.0277778
        k(   58) = (   0.1666667   0.4811252   0.0357719), wk =   0.0555556
        k(   59) = (   0.1666667   0.4811252   0.0715437), wk =   0.0555556
        k(   60) = (   0.1666667   0.4811252  -0.1073156), wk =   0.0277778
        k(   61) = (   0.1666667   0.5773503   0.0000000), wk =   0.0138889
        k(   62) = (   0.1666667   0.5773503   0.0357719), wk =   0.0277778
        k(   63) = (   0.1666667   0.5773503   0.0715437), wk =   0.0277778
        k(   64) = (   0.1666667   0.5773503  -0.1073156), wk =   0.0138889
        k(   65) = (   0.2500000   0.4330127   0.0000000), wk =   0.0138889
        k(   66) = (   0.2500000   0.4330127   0.0357719), wk =   0.0277778
        k(   67) = (   0.2500000   0.4330127   0.0715437), wk =   0.0277778
        k(   68) = (   0.2500000   0.4330127  -0.1073156), wk =   0.0138889
        k(   69) = (   0.2500000   0.5292377   0.0000000), wk =   0.0277778
        k(   70) = (   0.2500000   0.5292377   0.0357719), wk =   0.0555556
        k(   71) = (   0.2500000   0.5292377   0.0715437), wk =   0.0555556
        k(   72) = (   0.2500000   0.5292377  -0.1073156), wk =   0.0277778
        k(   73) = (   0.3333333   0.5773503   0.0000000), wk =   0.0046296
        k(   74) = (   0.3333333   0.5773503   0.0357719), wk =   0.0092593
        k(   75) = (   0.3333333   0.5773503   0.0715437), wk =   0.0092593
        k(   76) = (   0.3333333   0.5773503  -0.1073156), wk =   0.0046296

     Dense  grid:    69455 G-vectors     FFT dimensions: (  36,  36, 150)

     Smooth grid:    24621 G-vectors     FFT dimensions: (  24,  24, 108)

     Estimated max dynamical RAM per process >      96.22 MB

     Estimated total dynamical RAM >     384.88 MB

     Initial potential from superposition of free atoms

     starting charge      51.9979, renormalised to      52.0000
     Starting wfcs are   36 randomized atomic wfcs

     total cpu time spent up to now is        0.8 secs

     Self-consistent Calculation

     iteration #  1     ecut=    35.00 Ry     beta= 0.70
     Davidson diagonalization with overlap
     ethr =  1.00E-02,  avg # of iterations =  2.1

     Threshold (ethr) on eigenvalues was too large:
     Diagonalizing with lowered threshold

     Davidson diagonalization with overlap
     ethr =  3.24E-04,  avg # of iterations =  2.1

     total cpu time spent up to now is        4.4 secs

     total energy              =    -370.99680818 Ry
     estimated scf accuracy    <       0.21595002 Ry

     iteration #  2     ecut=    35.00 Ry     beta= 0.70
     Davidson diagonalization with overlap
     ethr =  4.15E-04,  avg # of iterations =  4.0

     total cpu time spent up to now is        6.5 secs

     total energy              =    -370.95003223 Ry
     estimated scf accuracy    <       0.51904899 Ry

     iteration #  3     ecut=    35.00 Ry     beta= 0.70
     Davidson diagonalization with overlap
     ethr =  4.15E-04,  avg # of iterations =  4.6

     total cpu time spent up to now is        8.6 secs

     total energy              =    -371.04892428 Ry
     estimated scf accuracy    <       0.18313661 Ry

     iteration #  4     ecut=    35.00 Ry     beta= 0.70
     Davidson diagonalization with overlap
     ethr =  3.52E-04,  avg # of iterations =  2.1

     total cpu time spent up to now is       10.2 secs

     total energy              =    -371.07344046 Ry
     estimated scf accuracy    <       0.00164970 Ry

     iteration #  5     ecut=    35.00 Ry     beta= 0.70
     Davidson diagonalization with overlap
     ethr =  3.17E-06,  avg # of iterations =  7.0

     total cpu time spent up to now is       12.8 secs

     total energy              =    -371.07493895 Ry
     estimated scf accuracy    <       0.00381774 Ry

     iteration #  6     ecut=    35.00 Ry     beta= 0.70
     Davidson diagonalization with overlap
     ethr =  3.17E-06,  avg # of iterations =  2.3

     total cpu time spent up to now is       14.4 secs

     total energy              =    -371.07511247 Ry
     estimated scf accuracy    <       0.00035225 Ry

     iteration #  7     ecut=    35.00 Ry     beta= 0.70
     Davidson diagonalization with overlap
     ethr =  6.77E-07,  avg # of iterations =  4.7

     total cpu time spent up to now is       16.2 secs

     total energy              =    -371.07519483 Ry
     estimated scf accuracy    <       0.00001746 Ry

     iteration #  8     ecut=    35.00 Ry     beta= 0.70
     Davidson diagonalization with overlap
     ethr =  3.36E-08,  avg # of iterations =  3.1

     total cpu time spent up to now is       17.9 secs

     total energy              =    -371.07519921 Ry
     estimated scf accuracy    <       0.00000037 Ry

     iteration #  9     ecut=    35.00 Ry     beta= 0.70
     Davidson diagonalization with overlap
     ethr =  7.13E-10,  avg # of iterations =  6.0

     total cpu time spent up to now is       20.7 secs

     total energy              =    -371.07519972 Ry
     estimated scf accuracy    <       0.00000002 Ry

     iteration # 10     ecut=    35.00 Ry     beta= 0.70
     Davidson diagonalization with overlap
     ethr =  4.29E-11,  avg # of iterations =  4.1

     total cpu time spent up to now is       22.6 secs

     End of self-consistent calculation

          k = 0.0000 0.0000 0.0000 (  3089 PWs)   bands (ev):

   -53.4624 -53.4623 -27.6049 -27.6049 -27.4054 -27.4054 -27.4054 -27.4053
    -6.6899  -6.6709  -5.3834  -5.3483   1.7165   1.8794   4.7757   4.7757
     4.7762   4.7762   5.3771   5.8897   5.8897   5.8917   5.8917   5.9484
     7.2354   7.6233  10.1704  10.1704  10.1721  10.1722  10.4174

          k = 0.0000 0.0000 0.0358 (  3095 PWs)   bands (ev):

   -53.4624 -53.4623 -27.6050 -27.6049 -27.4054 -27.4054 -27.4054 -27.4053
    -6.6887  -6.6722  -5.3810  -5.3507   1.7267   1.8678   4.7757   4.7757
     4.7762   4.7762   5.4099   5.8898   5.8899   5.8915   5.8916   5.9008
     7.2714   7.6037  10.1705  10.1706  10.1720  10.1721  10.4176

          k = 0.0000 0.0000 0.0715 (  3089 PWs)   bands (ev):

   -53.4624 -53.4623 -27.6050 -27.6049 -27.4054 -27.4054 -27.4054 -27.4053
    -6.6853  -6.6757  -5.3745  -5.3570   1.7552   1.8365   4.7758   4.7758
     4.7761   4.7761   5.5019   5.7814   5.8902   5.8902   5.8912   5.8912
     7.3589   7.5469  10.1708  10.1709  10.1717  10.1718  10.4223

          k = 0.0000 0.0000-0.1073 (  3076 PWs)   bands (ev):

   -53.4624 -53.4623 -27.6050 -27.6049 -27.4054 -27.4054 -27.4054 -27.4053
    -6.6805  -6.6805  -5.3658  -5.3658   1.7952   1.7952   4.7759   4.7760
     4.7760   4.7760   5.6352   5.6353   5.8907   5.8907   5.8907   5.8907
     7.4601   7.4601  10.1712  10.1712  10.1713  10.1713  10.4217

          k = 0.0000 0.0962 0.0000 (  3091 PWs)   bands (ev):

   -53.4599 -53.4598 -27.6000 -27.5999 -27.4308 -27.4308 -27.4112 -27.4111
    -6.5879  -6.5690  -5.3414  -5.3075   1.8333   1.9955   4.5488   4.5498
     4.8829   4.8837   4.9992   5.2704   5.7268   5.7291   6.1249   6.3969
     7.2096   7.5336  10.0264  10.0552  10.1072  10.2035  10.3057

          k = 0.0000 0.0962 0.0358 (  3090 PWs)   bands (ev):

   -53.4599 -53.4598 -27.6000 -27.5999 -27.4308 -27.4308 -27.4111 -27.4111
    -6.5866  -6.5703  -5.3391  -5.3098   1.8435   1.9838   4.5488   4.5497
     4.8829   4.8837   5.0194   5.2546   5.7270   5.7290   6.1359   6.3669
     7.2416   7.5180  10.0273  10.0504  10.1166  10.1983  10.3100

          k = 0.0000 0.0962 0.0715 (  3085 PWs)   bands (ev):

   -53.4599 -53.4598 -27.6000 -27.5999 -27.4308 -27.4308 -27.4111 -27.4111
    -6.5832  -6.5738  -5.3328  -5.3159   1.8717   1.9527   4.5490   4.5495
     4.8831   4.8835   5.0733   5.2095   5.7274   5.7286   6.1693   6.2979
     7.3172   7.4725  10.0301  10.0422  10.1377  10.1835  10.3036

          k = 0.0000 0.0962-0.1073 (  3086 PWs)   bands (ev):

   -53.4599 -53.4598 -27.6000 -27.5999 -27.4308 -27.4308 -27.4111 -27.4111
    -6.5785  -6.5785  -5.3244  -5.3244   1.9115   1.9115   4.5492   4.5492
     4.8833   4.8833   5.1436   5.1436   5.7280   5.7280   6.2253   6.2253
     7.4018   7.4018  10.0350  10.0350  10.1619  10.1619  10.3057

          k = 0.0000 0.1925 0.0000 (  3074 PWs)   bands (ev):

   -53.4531 -53.4530 -27.5864 -27.5863 -27.4997 -27.4997 -27.4269 -27.4269
    -6.2977  -6.2793  -5.2221  -5.1918   2.1292   2.2839   4.0263   4.0339
     4.4081   4.5801   5.1820   5.1837   5.3428   5.3458   6.2074   6.4824
     7.0454   7.2095   9.5982   9.8709   9.9312  10.0287  10.0439

          k = 0.0000 0.1925 0.0358 (  3082 PWs)   bands (ev):

   -53.4531 -53.4531 -27.5864 -27.5863 -27.4997 -27.4997 -27.4269 -27.4269
    -6.2965  -6.2806  -5.2200  -5.1938   2.1388   2.2727   4.0266   4.0331
     4.4212   4.5700   5.1821   5.1836   5.3430   5.3456   6.2213   6.4567
     7.0628   7.2023   9.6124   9.8345   9.9580  10.0297  10.0429

          k = 0.0000 0.1925 0.0715 (  3090 PWs)   bands (ev):

   -53.4531 -53.4531 -27.5864 -27.5863 -27.4997 -27.4997 -27.4269 -27.4269
    -6.2932  -6.2840  -5.2144  -5.1993   2.1656   2.2428   4.0276   4.0313
     4.4557   4.5414   5.1824   5.1833   5.3435   5.3450   6.2614   6.3945
     7.1030   7.1808   9.6520   9.7731   9.9937  10.0325  10.0401

          k = 0.0000 0.1925-0.1073 (  3098 PWs)   bands (ev):

   -53.4531 -53.4531 -27.5864 -27.5863 -27.4997 -27.4997 -27.4269 -27.4269
    -6.2886  -6.2886  -5.2068  -5.2068   2.2034   2.2034   4.0293   4.0293
     4.5001   4.5001   5.1828   5.1828   5.3443   5.3443   6.3228   6.3228
     7.1461   7.1462   9.7089   9.7089  10.0218  10.0362  10.0362

          k = 0.0000 0.2887 0.0000 (  3088 PWs)   bands (ev):

   -53.4438 -53.4438 -27.5926 -27.5926 -27.5677 -27.5677 -27.4483 -27.4483
    -5.8685  -5.8515  -5.0469  -5.0221   2.3575   2.4678   3.5705   3.6159
     3.7895   3.8930   4.9119   4.9154   5.6018   5.6054   5.9926   6.2047
     6.6685   6.7177   9.4371   9.7583   9.7677   9.7736  10.2062

          k = 0.0000 0.2887 0.0358 (  3089 PWs)   bands (ev):

   -53.4438 -53.4438 -27.5926 -27.5926 -27.5677 -27.5677 -27.4483 -27.4483
    -5.8673  -5.8527  -5.0452  -5.0237   2.3645   2.4600   3.5723   3.6107
     3.7993   3.8878   4.9121   4.9151   5.6021   5.6052   6.0050   6.1880
     6.6736   6.7156   9.4557   9.7381   9.7594   9.7726  10.2297

          k = 0.0000 0.2887 0.0715 (  3093 PWs)   bands (ev):

   -53.4438 -53.4438 -27.5926 -27.5926 -27.5677 -27.5677 -27.4483 -27.4483
    -5.8643  -5.8558  -5.0406  -5.0282   2.3838   2.4389   3.5779   3.5990
     3.8227   3.8727   4.9127   4.9145   5.6027   5.6045   6.0400   6.1450
     6.6856   6.7092   9.5079   9.6671   9.7621   9.7698  10.2838

          k = 0.0000 0.2887-0.1073 (  3078 PWs)   bands (ev):

   -53.4438 -53.4438 -27.5926 -27.5926 -27.5677 -27.5677 -27.4483 -27.4483
    -5.8601  -5.8601  -5.0344  -5.0343   2.4109   2.4109   3.5871   3.5871
     3.8497   3.8497   4.9136   4.9136   5.6036   5.6036   6.0905   6.0906
     6.6987   6.6987   9.5834   9.5834   9.7659   9.7659  10.3434

          k = 0.0000 0.3849 0.0000 (  3074 PWs)   bands (ev):

   -53.4345 -53.4344 -27.6842 -27.6842 -27.5490 -27.5490 -27.4697 -27.4696
    -5.3874  -5.3732  -4.8542  -4.8363   2.1458   2.1931   3.2099   3.2688
     3.4659   3.5529   4.5490   4.5528   5.7280   5.8718   6.0232   6.0299
     6.4192   6.4656   9.6104   9.6222   9.6316   9.8792  10.6734

          k = 0.0000 0.3849 0.0358 (  3067 PWs)   bands (ev):

   -53.4345 -53.4344 -27.6842 -27.6842 -27.5490 -27.5490 -27.4697 -27.4696
    -5.3864  -5.3742  -4.8529  -4.8374   2.1489   2.1899   3.2129   3.2634
     3.4733   3.5481   4.5492   4.5526   5.7368   5.8612   6.0236   6.0294
     6.4231   6.4631   9.6111   9.6214   9.6460   9.8593  10.6948

          k = 0.0000 0.3849 0.0715 (  3061 PWs)   bands (ev):

   -53.4345 -53.4344 -27.6842 -27.6842 -27.5490 -27.5490 -27.4697 -27.4696
    -5.3839  -5.3769  -4.8496  -4.8406   2.1574   2.1810   3.2216   3.2502
     3.4918   3.5344   4.5499   4.5519   5.7616   5.8332   6.0249   6.0282
     6.4331   6.4560   9.6133   9.6192   9.6865   9.8084  10.7499

          k = 0.0000 0.3849-0.1073 (  3060 PWs)   bands (ev):

   -53.4345 -53.4344 -27.6842 -27.6842 -27.5490 -27.5490 -27.4697 -27.4696
    -5.3804  -5.3804  -4.8451  -4.8451   2.1691   2.1691   3.2349   3.2349
     3.5142   3.5142   4.5509   4.5509   5.7965   5.7966   6.0265   6.0265
     6.4452   6.4452   9.6162   9.6162   9.7450   9.7450  10.8198

          k = 0.0000 0.4811 0.0000 (  3076 PWs)   bands (ev):

   -53.4276 -53.4276 -27.7504 -27.7504 -27.5353 -27.5353 -27.4852 -27.4852
    -4.9874  -4.9776  -4.6987  -4.6880   1.7880   1.8180   2.7831   2.8171
     3.3751   3.4565   4.3133   4.3174   5.5727   5.6477   6.3169   6.3272
     6.5870   6.6339   9.6049   9.6114   9.9490  10.0710  11.0398

          k = 0.0000 0.4811 0.0358 (  3086 PWs)   bands (ev):

   -53.4277 -53.4276 -27.7504 -27.7504 -27.5353 -27.5353 -27.4852 -27.4852
    -4.9868  -4.9783  -4.6980  -4.6887   1.7900   1.8160   2.7851   2.8145
     3.3809   3.4513   4.3135   4.3171   5.5774   5.6423   6.3175   6.3265
     6.5905   6.6310   9.6053   9.6110   9.9565  10.0619  11.0569

          k = 0.0000 0.4811 0.0715 (  3081 PWs)   bands (ev):

   -53.4276 -53.4276 -27.7504 -27.7504 -27.5353 -27.5353 -27.4852 -27.4852
    -4.9850  -4.9801  -4.6960  -4.6906   1.7954   1.8104   2.7908   2.8077
     3.3964   3.4371   4.3143   4.3163   5.5906   5.6280   6.3194   6.3246
     6.5996   6.6230   9.6065   9.6097   9.9774  10.0381  11.1042

          k = 0.0000 0.4811-0.1073 (  3066 PWs)   bands (ev):

   -53.4276 -53.4276 -27.7504 -27.7504 -27.5353 -27.5353 -27.4852 -27.4852
    -4.9826  -4.9826  -4.6933  -4.6933   1.8029   1.8029   2.7989   2.7989
     3.4171   3.4171   4.3153   4.3153   5.6090   5.6090   6.3220   6.3221
     6.6116   6.6116   9.6081   9.6081  10.0070  10.0070  11.1686

          k = 0.0000-0.5774 0.0000 (  3064 PWs)   bands (ev):

   -53.4251 -53.4251 -27.7745 -27.7744 -27.5303 -27.5302 -27.4909 -27.4909
    -4.8268  -4.8201  -4.6376  -4.6312   1.6335   1.6611   2.6252   2.6504
     3.3024   3.3794   4.2321   4.2362   5.5401   5.5584   6.4172   6.4293
     6.7744   6.7787   9.6323   9.6360  10.1254  10.1804  11.1638

          k = 0.0000-0.5774 0.0358 (  3080 PWs)   bands (ev):

   -53.4251 -53.4251 -27.7745 -27.7744 -27.5303 -27.5302 -27.4909 -27.4909
    -4.8263  -4.8205  -4.6372  -4.6316   1.6353   1.6592   2.6267   2.6485
     3.3079   3.3745   4.2323   4.2359   5.5413   5.5572   6.4180   6.4285
     6.7747   6.7785   9.6325   9.6358  10.1292  10.1768  11.1783

          k = 0.0000-0.5774 0.0715 (  3076 PWs)   bands (ev):

   -53.4251 -53.4251 -27.7745 -27.7744 -27.5303 -27.5302 -27.4909 -27.4909
    -4.8251  -4.8218  -4.6360  -4.6328   1.6403   1.6541   2.6309   2.6434
     3.3225   3.3609   4.2331   4.2352   5.5445   5.5537   6.4202   6.4263
     6.7756   6.7777   9.6332   9.6351  10.1394  10.1669  11.2195

          k = 0.0000-0.5774-0.1073 (  3088 PWs)   bands (ev):

   -53.4251 -53.4251 -27.7745 -27.7744 -27.5303 -27.5302 -27.4909 -27.4909
    -4.8235  -4.8235  -4.6344  -4.6344   1.6472   1.6472   2.6369   2.6369
     3.3419   3.3419   4.2341   4.2341   5.5491   5.5491   6.4232   6.4233
     6.7767   6.7767   9.6341   9.6341  10.1533  10.1533  11.2793

          k = 0.0833 0.1443 0.0000 (  3091 PWs)   bands (ev):

   -53.4552 -53.4552 -27.5907 -27.5907 -27.4767 -27.4766 -27.4232 -27.4232
    -6.3916  -6.3731  -5.2606  -5.2291   2.0431   2.2017   4.1825   4.1840
     4.6069   4.8139   5.0782   5.0793   5.3473   5.3548   6.3104   6.5816
     7.1148   7.3251   9.7163   9.8637   9.9389   9.9438  10.0915

          k = 0.0833 0.1443 0.0358 (  3097 PWs)   bands (ev):

   -53.4552 -53.4552 -27.5907 -27.5907 -27.4767 -27.4766 -27.4232 -27.4232
    -6.3904  -6.3744  -5.2584  -5.2312   2.0530   2.1902   4.1826   4.1838
     4.6223   4.8015   5.0783   5.0792   5.3478   5.3543   6.3229   6.5539
     7.1376   7.3158   9.7266   9.8541   9.9396   9.9437  10.0929

          k = 0.0833 0.1443 0.0715 (  3099 PWs)   bands (ev):

   -53.4552 -53.4552 -27.5907 -27.5907 -27.4767 -27.4766 -27.4232 -27.4232
    -6.3871  -6.3778  -5.2526  -5.2369   2.0804   2.1596   4.1827   4.1833
     4.6632   4.7666   5.0785   5.0790   5.3491   5.3528   6.3600   6.4894
     7.1893   7.2883   9.7545   9.8280   9.9411   9.9433  10.0988

          k = 0.0833 0.1443-0.1073 (  3088 PWs)   bands (ev):

   -53.4552 -53.4552 -27.5907 -27.5907 -27.4767 -27.4766 -27.4232 -27.4232
    -6.3825  -6.3824  -5.2448  -5.2448   2.1192   2.1193   4.1829   4.1829
     4.7164   4.7164   5.0788   5.0788   5.3509   5.3509   6.4184   6.4184
     7.2443   7.2443   9.7917   9.7917   9.9423   9.9423  10.1029

          k = 0.0833 0.2406 0.0000 (  3089 PWs)   bands (ev):

   -53.4472 -53.4472 -27.5746 -27.5745 -27.5542 -27.5542 -27.4451 -27.4451
    -6.0309  -6.0134  -5.1123  -5.0854   2.3343   2.4711   3.7106   3.7293
     4.1039   4.2341   4.7997   4.8260   5.3907   5.3929   6.3086   6.5163
     6.8321   6.9052   9.3867   9.6574   9.8508   9.9026   9.9392

          k = 0.0833 0.2406 0.0358 (  3084 PWs)   bands (ev):

   -53.4472 -53.4472 -27.5746 -27.5745 -27.5542 -27.5542 -27.4451 -27.4451
    -6.0298  -6.0146  -5.1105  -5.0872   2.3428   2.4612   3.7114   3.7273
     4.1145   4.2269   4.8014   4.8242   5.3908   5.3927   6.3196   6.4978
     6.8407   6.9023   9.4035   9.6365   9.8523   9.8905   9.9600

          k = 0.0833 0.2406 0.0715 (  3092 PWs)   bands (ev):

   -53.4472 -53.4472 -27.5746 -27.5745 -27.5542 -27.5542 -27.4451 -27.4451
    -6.0266  -6.0179  -5.1055  -5.0920   2.3665   2.4348   3.7137   3.7227
     4.1418   4.2063   4.8059   4.8191   5.3912   5.3923   6.3512   6.4523
     6.8598   6.8936   9.4499   9.5828   9.8572   9.8759   9.9934

          k = 0.0833 0.2406-0.1073 (  3094 PWs)   bands (ev):

   -53.4472 -53.4472 -27.5746 -27.5745 -27.5542 -27.5542 -27.4451 -27.4451
    -6.0223  -6.0223  -5.0988  -5.0987   2.3999   2.3999   3.7177   3.7177
     4.1757   4.1757   4.8123   4.8123   5.3918   5.3918   6.3985   6.3985
     6.8790   6.8790   9.5147   9.5147   9.8651   9.8651  10.0236

          k = 0.0833 0.3368 0.0000 (  3079 PWs)   bands (ev):

   -53.4379 -53.4379 -27.6425 -27.6425 -27.5559 -27.5559 -27.4704 -27.4704
    -5.5723  -5.5568  -4.9254  -4.9045   2.3395   2.4088   3.4913   3.5159
     3.5528   3.5882   4.4330   4.4776   5.6459   5.6481   6.0528   6.1861
     6.5489   6.5727   9.3467   9.5484   9.7800   9.9098  10.2723

          k = 0.0833 0.3368 0.0358 (  3075 PWs)   bands (ev):

   -53.4379 -53.4379 -27.6425 -27.6425 -27.5559 -27.5559 -27.4704 -27.4704
    -5.5713  -5.5579  -4.9239  -4.9059   2.3439   2.4040   3.4917   3.5121
     3.5574   3.5871   4.4362   4.4749   5.6460   5.6479   6.0608   6.1760
     6.5512   6.5715   9.3610   9.5364   9.7843   9.8924  10.2944

          k = 0.0833 0.3368 0.0715 (  3075 PWs)   bands (ev):

   -53.4379 -53.4379 -27.6425 -27.6425 -27.5559 -27.5559 -27.4704 -27.4704
    -5.5685  -5.5608  -4.9201  -4.9097   2.3563   2.3910   3.4935   3.5046
     3.5671   3.5834   4.4449   4.4672   5.6464   5.6475   6.0833   6.1495
     6.5567   6.5682   9.3999   9.5021   9.7979   9.8559  10.3452

          k = 0.0833 0.3368-0.1073 (  3084 PWs)   bands (ev):

   -53.4379 -53.4379 -27.6425 -27.6425 -27.5559 -27.5559 -27.4704 -27.4704
    -5.5647  -5.5647  -4.9148  -4.9148   2.3735   2.3735   3.4978   3.4978
     3.5765   3.5765   4.4563   4.4563   5.6469   5.6469   6.1154   6.1154
     6.5630   6.5630   9.4521   9.4521   9.8218   9.8218  10.4012

          k = 0.0833 0.4330 0.0000 (  3057 PWs)   bands (ev):

   -53.4298 -53.4298 -27.7179 -27.7179 -27.5397 -27.5396 -27.4923 -27.4923
    -5.1238  -5.1120  -4.7460  -4.7322   2.0210   2.0557   2.9231   2.9531
     3.4820   3.5637   4.2719   4.3066   5.7538   5.7706   5.7828   5.8310
     6.6470   6.6682   9.5199   9.6291   9.8925   9.9873  10.7546

          k = 0.0833 0.4330 0.0358 (  3065 PWs)   bands (ev):

   -53.4298 -53.4298 -27.7179 -27.7179 -27.5397 -27.5396 -27.4923 -27.4923
    -5.1231  -5.1129  -4.7451  -4.7331   2.0232   2.0533   2.9249   2.9509
     3.4876   3.5583   4.2745   4.3046   5.7554   5.7699   5.7851   5.8272
     6.6486   6.6669   9.5281   9.6229   9.8964   9.9776  10.7713

          k = 0.0833 0.4330 0.0715 (  3064 PWs)   bands (ev):

   -53.4298 -53.4298 -27.7179 -27.7179 -27.5397 -27.5396 -27.4923 -27.4923
    -5.1210  -5.1151  -4.7425  -4.7356   2.0295   2.0469   2.9300   2.9449
     3.5027   3.5434   4.2815   4.2988   5.7592   5.7675   5.7925   5.8171
     6.6528   6.6633   9.5499   9.6050   9.9083   9.9542  10.8156

          k = 0.0833 0.4330-0.1073 (  3062 PWs)   bands (ev):

   -53.4298 -53.4298 -27.7179 -27.7179 -27.5397 -27.5396 -27.4923 -27.4923
    -5.1181  -5.1180  -4.7390  -4.7390   2.0381   2.0381   2.9372   2.9372
     3.5231   3.5231   4.2904   4.2904   5.7637   5.7637   5.8041   5.8041
     6.6582   6.6582   9.5785   9.5785   9.9285   9.9285  10.8695

          k = 0.0833 0.5292 0.0000 (  3090 PWs)   bands (ev):

   -53.4252 -53.4251 -27.7611 -27.7610 -27.5303 -27.5303 -27.5049 -27.5049
    -4.8339  -4.8266  -4.6326  -4.6252   1.7710   1.7985   2.5902   2.6068
     3.3614   3.4366   4.2232   4.2432   5.5728   5.6101   5.9008   5.9128
     6.8892   6.9080   9.6349   9.6656  10.1141  10.1871  11.1651

          k = 0.0833 0.5292 0.0358 (  3081 PWs)   bands (ev):

   -53.4251 -53.4251 -27.7611 -27.7610 -27.5303 -27.5303 -27.5049 -27.5049
    -4.8334  -4.8271  -4.6321  -4.6257   1.7728   1.7967   2.5912   2.6055
     3.3665   3.4316   4.2247   4.2421   5.5750   5.6074   5.9017   5.9121
     6.8905   6.9068   9.6370   9.6635  10.1187  10.1818  11.1776

          k = 0.0833 0.5292 0.0715 (  3075 PWs)   bands (ev):

   -53.4251 -53.4251 -27.7611 -27.7610 -27.5303 -27.5303 -27.5049 -27.5049
    -4.8321  -4.8285  -4.6307  -4.6270   1.7778   1.7916   2.5940   2.6023
     3.3803   3.4178   4.2288   4.2388   5.5814   5.6001   5.9041   5.9101
     6.8940   6.9034   9.6426   9.6579  10.1314  10.1678  11.2113

          k = 0.0833 0.5292-0.1073 (  3068 PWs)   bands (ev):

   -53.4251 -53.4251 -27.7610 -27.7610 -27.5303 -27.5303 -27.5049 -27.5049
    -4.8303  -4.8303  -4.6288  -4.6288   1.7847   1.7847   2.5980   2.5980
     3.3991   3.3991   4.2339   4.2340   5.5905   5.5905   5.9072   5.9072
     6.8988   6.8988   9.6502   9.6502  10.1493  10.1493  11.2558

          k = 0.1667 0.2887 0.0000 (  3091 PWs)   bands (ev):

   -53.4391 -53.4391 -27.6212 -27.6212 -27.5584 -27.5584 -27.4769 -27.4769
    -5.6383  -5.6224  -4.9499  -4.9281   2.4350   2.5194   3.5602   3.6130
     3.7160   3.7611   4.1796   4.2757   5.4311   5.4321   6.3136   6.4324
     6.6134   6.6265   9.2255   9.4698   9.8334   9.9594   9.9904

          k = 0.1667 0.2887 0.0358 (  3080 PWs)   bands (ev):

   -53.4391 -53.4391 -27.6212 -27.6212 -27.5584 -27.5584 -27.4769 -27.4769
    -5.6373  -5.6235  -4.9484  -4.9295   2.4405   2.5135   3.5622   3.6064
     3.7219   3.7595   4.1866   4.2698   5.4312   5.4320   6.3205   6.4231
     6.6149   6.6260   9.2413   9.4526   9.8371   9.9273  10.0282

          k = 0.1667 0.2887 0.0715 (  3083 PWs)   bands (ev):

   -53.4391 -53.4391 -27.6212 -27.6212 -27.5584 -27.5584 -27.4769 -27.4769
    -5.6344  -5.6265  -4.9444  -4.9335   2.4555   2.4976   3.5681   3.5924
     3.7343   3.7546   4.2053   4.2533   5.4313   5.4318   6.3401   6.3990
     6.6184   6.6245   9.2849   9.4065   9.8479   9.8924  10.0775

          k = 0.1667 0.2887-0.1073 (  3080 PWs)   bands (ev):

   -53.4391 -53.4391 -27.6212 -27.6212 -27.5584 -27.5584 -27.4769 -27.4769
    -5.6305  -5.6305  -4.9389  -4.9389   2.4763   2.4763   3.5784   3.5784
     3.7461   3.7461   4.2299   4.2299   5.4315   5.4316   6.3684   6.3684
     6.6219   6.6219   9.3450   9.3450   9.8662   9.8662  10.1214

          k = 0.1667 0.3849 0.0000 (  3064 PWs)   bands (ev):

   -53.4311 -53.4310 -27.6840 -27.6840 -27.5422 -27.5422 -27.5120 -27.5119
    -5.2032  -5.1904  -4.7695  -4.7539   2.2731   2.3146   3.0421   3.0566
     3.6495   3.7168   4.0782   4.1730   5.1678   5.1774   6.0493   6.0979
     6.6553   6.6570   9.3720   9.6246   9.9379   9.9713  10.3150

          k = 0.1667 0.3849 0.0358 (  3066 PWs)   bands (ev):

   -53.4311 -53.4310 -27.6840 -27.6840 -27.5422 -27.5422 -27.5120 -27.5119
    -5.2024  -5.1912  -4.7684  -4.7549   2.2758   2.3118   3.0431   3.0557
     3.6531   3.7110   4.0860   4.1678   5.1684   5.1767   6.0522   6.0943
     6.6555   6.6569   9.3872   9.6053   9.9391   9.9668  10.3329

          k = 0.1667 0.3849 0.0715 (  3069 PWs)   bands (ev):

   -53.4311 -53.4310 -27.6840 -27.6840 -27.5422 -27.5422 -27.5120 -27.5119
    -5.2001  -5.1937  -4.7655  -4.7577   2.2833   2.3041   3.0457   3.0530
     3.6634   3.6964   4.1061   4.1529   5.1701   5.1749   6.0605   6.0847
     6.6558   6.6566   9.4295   9.5547   9.9427   9.9575  10.3765

          k = 0.1667 0.3849-0.1073 (  3058 PWs)   bands (ev):

   -53.4311 -53.4310 -27.6840 -27.6840 -27.5422 -27.5422 -27.5120 -27.5119
    -5.1969  -5.1969  -4.7616  -4.7616   2.2936   2.2936   3.0493   3.0493
     3.6788   3.6788   4.1308   4.1308   5.1724   5.1725   6.0722   6.0723
     6.6563   6.6563   9.4901   9.4901   9.9489   9.9489  10.4271

          k = 0.1667 0.4811 0.0000 (  3061 PWs)   bands (ev):

   -53.4251 -53.4251 -27.7285 -27.7284 -27.5388 -27.5388 -27.5303 -27.5303
    -4.8480  -4.8395  -4.6223  -4.6132   2.0926   2.1202   2.5235   2.5298
     3.5475   3.6110   4.1737   4.2417   5.0401   5.0615   5.6944   5.7255
     6.8964   6.9124   9.5620   9.6638  10.1499  10.2255  10.6780

          k = 0.1667 0.4811 0.0358 (  3070 PWs)   bands (ev):

   -53.4251 -53.4251 -27.7285 -27.7284 -27.5388 -27.5388 -27.5303 -27.5303
    -4.8474  -4.8401  -4.6217  -4.6138   2.0944   2.1183   2.5239   2.5294
     3.5513   3.6062   4.1789   4.2376   5.0415   5.0601   5.6962   5.7232
     6.8976   6.9114   9.5689   9.6571  10.1534  10.2182  10.6908

          k = 0.1667 0.4811 0.0715 (  3061 PWs)   bands (ev):

   -53.4251 -53.4251 -27.7285 -27.7284 -27.5388 -27.5388 -27.5303 -27.5303
    -4.8459  -4.8417  -4.6200  -4.6155   2.0994   2.1132   2.5251   2.5282
     3.5621   3.5937   4.1925   4.2263   5.0455   5.0562   5.7014   5.7170
     6.9006   6.9086   9.5877   9.6387  10.1638  10.2003  10.7245

          k = 0.1667 0.4811-0.1073 (  3060 PWs)   bands (ev):

   -53.4251 -53.4251 -27.7285 -27.7284 -27.5388 -27.5388 -27.5303 -27.5303
    -4.8439  -4.8438  -4.6177  -4.6177   2.1063   2.1063   2.5267   2.5267
     3.5774   3.5774   4.2100   4.2100   5.0509   5.0509   5.7090   5.7090
     6.9046   6.9046   9.6133   9.6133  10.1803  10.1803  10.7652

          k = 0.1667 0.5774 0.0000 (  3080 PWs)   bands (ev):

   -53.4230 -53.4230 -27.7444 -27.7444 -27.5487 -27.5487 -27.5260 -27.5259
    -4.7075  -4.7023  -4.5640  -4.5590   2.0275   2.0519   2.3357   2.3381
     3.4257   3.4899   4.2534   4.3025   5.0456   5.0645   5.5144   5.5579
     7.0707   7.0933   9.5149   9.5391  10.4184  10.4476  10.8499

          k = 0.1667 0.5774 0.0358 (  3077 PWs)   bands (ev):

   -53.4230 -53.4230 -27.7444 -27.7444 -27.5487 -27.5487 -27.5260 -27.5259
    -4.7072  -4.7026  -4.5637  -4.5593   2.0291   2.0503   2.3359   2.3379
     3.4297   3.4853   4.2571   4.2996   5.0469   5.0633   5.5170   5.5548
     7.0722   7.0918   9.5165   9.5375  10.4199  10.4450  10.8586

          k = 0.1667 0.5774 0.0715 (  3074 PWs)   bands (ev):

   -53.4230 -53.4230 -27.7444 -27.7444 -27.5487 -27.5487 -27.5260 -27.5259
    -4.7062  -4.7036  -4.5627  -4.5602   2.0335   2.0457   2.3363   2.3375
     3.4409   3.4729   4.2669   4.2914   5.0505   5.0599   5.5245   5.5463
     7.0765   7.0878   9.5210   9.5331  10.4242  10.4386  10.8829

          k = 0.1667 0.5774-0.1073 (  3072 PWs)   bands (ev):

   -53.4230 -53.4230 -27.7444 -27.7444 -27.5488 -27.5487 -27.5260 -27.5259
    -4.7050  -4.7049  -4.5615  -4.5614   2.0396   2.0396   2.3369   2.3369
     3.4566   3.4566   4.2796   4.2796   5.0552   5.0553   5.5352   5.5352
     7.0822   7.0822   9.5271   9.5271  10.4308  10.4308  10.9156

          k = 0.2500 0.4330 0.0000 (  3066 PWs)   bands (ev):

   -53.4251 -53.4251 -27.7067 -27.7067 -27.5612 -27.5612 -27.5303 -27.5303
    -4.8549  -4.8460  -4.6172  -4.6073   2.2859   2.3145   2.4878   2.4992
     3.7894   3.8135   4.1405   4.2313   4.4899   4.5139   5.7794   5.7903
     6.8768   6.8864   9.5097   9.6425  10.1768  10.2550  10.4258

          k = 0.2500 0.4330 0.0358 (  3053 PWs)   bands (ev):

   -53.4251 -53.4251 -27.7067 -27.7067 -27.5612 -27.5612 -27.5303 -27.5303
    -4.8543  -4.8466  -4.6165  -4.6079   2.2878   2.3125   2.4886   2.4985
     3.7902   3.8108   4.1478   4.2261   4.4915   4.5123   5.7798   5.7893
     6.8774   6.8857   9.5185   9.6336  10.1793  10.2439  10.4434

          k = 0.2500 0.4330 0.0715 (  3066 PWs)   bands (ev):

   -53.4251 -53.4251 -27.7067 -27.7067 -27.5612 -27.5612 -27.5303 -27.5303
    -4.8527  -4.8483  -4.6146  -4.6097   2.2929   2.3071   2.4908   2.4965
     3.7928   3.8044   4.1665   4.2115   4.4961   4.5081   5.7813   5.7868
     6.8792   6.8840   9.5427   9.6092  10.1874  10.2218  10.4833

          k = 0.2500 0.4330-0.1073 (  3068 PWs)   bands (ev):

   -53.4252 -53.4251 -27.7067 -27.7067 -27.5612 -27.5612 -27.5303 -27.5303
    -4.8505  -4.8505  -4.6121  -4.6121   2.3000   2.3000   2.4937   2.4937
     3.7976   3.7977   4.1900   4.1900   4.5021   4.5021   5.7838   5.7838
     6.8816   6.8817   9.5759   9.5759  10.2016  10.2016  10.5284

          k = 0.2500 0.5292 0.0000 (  3058 PWs)   bands (ev):

   -53.4217 -53.4217 -27.7113 -27.7113 -27.5980 -27.5980 -27.5235 -27.5234
    -4.6386  -4.6343  -4.5192  -4.5148   2.1463   2.1573   2.4239   2.4435
     3.5737   3.6096   4.1855   4.2147   4.3512   4.4146   5.4361   5.4746
     7.1824   7.2023   9.2959   9.3169  10.4856  10.6453  10.7158

          k = 0.2500 0.5292 0.0358 (  3064 PWs)   bands (ev):

   -53.4217 -53.4217 -27.7113 -27.7113 -27.5980 -27.5980 -27.5235 -27.5234
    -4.6383  -4.6346  -4.5189  -4.5151   2.1470   2.1565   2.4253   2.4422
     3.5758   3.6069   4.1866   4.2117   4.3571   4.4116   5.4383   5.4717
     7.1837   7.2009   9.2974   9.3156  10.4956  10.6412  10.7117

          k = 0.2500 0.5292 0.0715 (  3061 PWs)   bands (ev):

   -53.4217 -53.4217 -27.7113 -27.7113 -27.5980 -27.5980 -27.5235 -27.5234
    -4.6376  -4.6354  -4.5181  -4.5159   2.1490   2.1544   2.4290   2.4387
     3.5818   3.5998   4.1903   4.2046   4.3716   4.4028   5.4447   5.4640
     7.1874   7.1973   9.3013   9.3118  10.5215  10.5977  10.6798

          k = 0.2500 0.5292-0.1073 (  3058 PWs)   bands (ev):

   -53.4217 -53.4217 -27.7113 -27.7113 -27.5980 -27.5980 -27.5235 -27.5234
    -4.6365  -4.6365  -4.5170  -4.5169   2.1517   2.1517   2.4339   2.4339
     3.5905   3.5905   4.1966   4.1966   4.3886   4.3886   5.4540   5.4540
     7.1923   7.1923   9.3066   9.3066  10.5586  10.5587  10.6930

          k = 0.3333 0.5774 0.0000 (  3030 PWs)   bands (ev):

   -53.4205 -53.4204 -27.6839 -27.6839 -27.6409 -27.6409 -27.5210 -27.5209
    -4.5594  -4.5594  -4.4771  -4.4771   1.9987   2.0114   2.8296   2.8296
     3.3358   3.3587   3.8503   3.8503   4.5427   4.5427   5.2685   5.2686
     7.3747   7.3944   9.0631   9.0631  10.3887  10.5758  10.9382

          k = 0.3333 0.5774 0.0358 (  3048 PWs)   bands (ev):

   -53.4205 -53.4204 -27.6839 -27.6839 -27.6409 -27.6409 -27.5210 -27.5209
    -4.5594  -4.5594  -4.4771  -4.4771   1.9995   2.0105   2.8297   2.8297
     3.3373   3.3572   3.8497   3.8497   4.5439   4.5439   5.2678   5.2678
     7.3760   7.3931   9.0631   9.0631  10.4005  10.5625  10.9387

          k = 0.3333 0.5774 0.0715 (  3048 PWs)   bands (ev):

   -53.4205 -53.4204 -27.6839 -27.6839 -27.6409 -27.6409 -27.5210 -27.5209
    -4.5594  -4.5594  -4.4771  -4.4771   2.0018   2.0082   2.8298   2.8298
     3.3416   3.3530   3.8483   3.8484   4.5464   4.5464   5.2664   5.2664
     7.3795   7.3894   9.0631   9.0632  10.4333  10.5267  10.9396

          k = 0.3333 0.5774-0.1073 (  3048 PWs)   bands (ev):

   -53.4205 -53.4204 -27.6839 -27.6839 -27.6409 -27.6409 -27.5210 -27.5209
    -4.5594  -4.5594  -4.4771  -4.4771   2.0050   2.0050   2.8299   2.8299
     3.3473   3.3473   3.8477   3.8477   4.5476   4.5476   5.2656   5.2657
     7.3844   7.3844   9.0631   9.0632  10.4792  10.4792  10.9401

     the Fermi energy is     8.3446 ev

!    total energy              =    -371.07519973 Ry
     estimated scf accuracy    <          6.3E-09 Ry
     smearing contrib. (-TS)   =       0.00000000 Ry
     internal energy E=F+TS    =    -371.07519973 Ry

     The total energy is F=E-TS. E is the sum of the following terms:
     one-electron contribution =    -317.47094677 Ry
     hartree contribution      =     174.65790849 Ry
     xc contribution           =     -65.12866694 Ry
     ewald contribution        =    -163.13349451 Ry

     convergence has been achieved in  10 iterations

     Forces acting on atoms (cartesian axes, Ry/au):

     atom    1 type  2   force =    -0.00000000   -0.00000000   -0.00252981
     atom    2 type  2   force =     0.00000000    0.00000000   -0.00252981
     atom    3 type  2   force =     0.00000000   -0.00000000    0.00252981
     atom    4 type  2   force =     0.00000000    0.00000000    0.00252981
     atom    5 type  1   force =     0.00000000    0.00000000   -0.00000000
     atom    6 type  1   force =     0.00000000    0.00000000   -0.00000000

     Total force =     0.005060     Total SCF correction =     0.000142


     Computing stress (Cartesian axis) and pressure

          total   stress  (Ry/bohr**3)                   (kbar)     P=        2.16
   0.00000773  -0.00000000   0.00000000            1.14       -0.00        0.00
  -0.00000000   0.00000773   0.00000000           -0.00        1.14        0.00
   0.00000000   0.00000000   0.00002851            0.00        0.00        4.19


     Writing all to output data dir ./NovdW/tetrahedra/MoS2.NovdW.tetrahedra.save/
 
     init_run     :      0.68s CPU      0.74s WALL (       1 calls)
     electrons    :     21.06s CPU     21.82s WALL (       1 calls)
     forces       :      0.22s CPU      0.24s WALL (       1 calls)
     stress       :      1.90s CPU      1.96s WALL (       1 calls)

     Called by init_run:
     wfcinit      :      0.49s CPU      0.53s WALL (       1 calls)
     potinit      :      0.01s CPU      0.01s WALL (       1 calls)
     hinit0       :      0.04s CPU      0.04s WALL (       1 calls)

     Called by electrons:
     c_bands      :     18.13s CPU     18.68s WALL (      11 calls)
     sum_band     :      2.59s CPU      2.72s WALL (      11 calls)
     v_of_rho     :      0.09s CPU      0.09s WALL (      11 calls)
     newd         :      0.26s CPU      0.34s WALL (      11 calls)
     mix_rho      :      0.01s CPU      0.01s WALL (      11 calls)

     Called by c_bands:
     init_us_2    :      0.28s CPU      0.28s WALL (    1900 calls)
     init_us_2:cp :      0.27s CPU      0.28s WALL (    1900 calls)
     cegterg      :     15.93s CPU     16.41s WALL (     836 calls)

     Called by *egterg:
     cdiaghg      :      1.91s CPU      1.97s WALL (    3962 calls)
     h_psi        :     11.00s CPU     11.36s WALL (    4114 calls)
     s_psi        :      0.85s CPU      0.88s WALL (    4114 calls)
     g_psi        :      0.06s CPU      0.06s WALL (    3202 calls)

     Called by h_psi:
     h_psi:calbec :      1.04s CPU      1.07s WALL (    4114 calls)
     vloc_psi     :      9.01s CPU      9.30s WALL (    4114 calls)
     add_vuspsi   :      0.88s CPU      0.91s WALL (    4114 calls)

     General routines
     calbec       :      1.52s CPU      1.58s WALL (    5330 calls)
     fft          :      0.04s CPU      0.04s WALL (     167 calls)
     ffts         :      0.00s CPU      0.00s WALL (      22 calls)
     fftw         :      8.56s CPU      8.82s WALL (  176376 calls)
     interpolate  :      0.00s CPU      0.00s WALL (      11 calls)
 
     Parallel routines
 
     PWSCF        :     23.97s CPU     24.90s WALL

 
   This run was terminated on:  16:38:42  26Nov2023            

=------------------------------------------------------------------------------=
   JOB DONE.
=------------------------------------------------------------------------------=
