
     Program PWSCF v.7.2 starts on 26Nov2023 at 12:30:45 

     This program is part of the open-source Quantum ESPRESSO suite
     for quantum simulation of materials; please cite
         "P. Giannozzi et al., J. Phys.:Condens. Matter 21 395502 (2009);
         "P. Giannozzi et al., J. Phys.:Condens. Matter 29 465901 (2017);
         "P. Giannozzi et al., J. Chem. Phys. 152 154105 (2020);
          URL http://www.quantum-espresso.org", 
     in publications or presentations arising from this work. More details at
     http://www.quantum-espresso.org/quote

     Parallel version (MPI), running on     4 processors

     MPI processes distributed on     1 nodes
     8075 MiB available memory on the printing compute node when the environment starts
 
     Waiting for input...
     Reading input from standard input

     Current dimensions of program PWSCF are:
     Max number of different atomic species (ntypx) = 10
     Max number of k-points (npk) =  40000
     Max angular momentum in pseudopotentials (lmaxx) =  4
 
     R & G space division:  proc/nbgrp/npool/nimage =       4
     Subspace diagonalization in iterative solution of the eigenvalue problem:
     a serial algorithm will be used

 
     Parallelization info
     --------------------
     sticks:   dense  smooth     PW     G-vecs:    dense   smooth      PW
     Min         172      87     27                17362     6149    1073
     Max         174      88     28                17368     6164    1086
     Sum         691     349    109                69455    24621    4307
 
     Using Slab Decomposition
 


     bravais-lattice index     =            4
     lattice parameter (alat)  =       6.0178  a.u.
     unit-cell volume          =     879.3280 (a.u.)^3
     number of atoms/cell      =            6
     number of atomic types    =            2
     number of electrons       =        52.00
     number of Kohn-Sham states=           26
     kinetic-energy cutoff     =      35.0000  Ry
     charge density cutoff     =     280.0000  Ry
     scf convergence threshold =      1.0E-08
     mixing beta               =       0.7000
     number of iterations used =            8  plain     mixing
     Exchange-correlation=  SLA  PW   PBX  PBC
                           (   1   4   3   4   0   0   0)

     celldm(1)=   6.017799  celldm(2)=   0.000000  celldm(3)=   4.659156
     celldm(4)=   0.000000  celldm(5)=   0.000000  celldm(6)=   0.000000

     crystal axes: (cart. coord. in units of alat)
               a(1) = (   1.000000   0.000000   0.000000 )  
               a(2) = (  -0.500000   0.866025   0.000000 )  
               a(3) = (   0.000000   0.000000   4.659156 )  

     reciprocal axes: (cart. coord. in units 2 pi/alat)
               b(1) = (  1.000000  0.577350  0.000000 )  
               b(2) = (  0.000000  1.154701  0.000000 )  
               b(3) = (  0.000000  0.000000  0.214631 )  


     PseudoPot. # 1 for Mo read from file:
     ./Mo_ONCV_PBE-1.0.oncvpsp.upf
     MD5 check sum: 1b5d28e075c9ccadda658a603575cd1f
     Pseudo is Norm-conserving, Zval = 14.0
     Generated using ONCVPSP code by D. R. Hamann
     Using radial grid of 1526 points,  6 beta functions with: 
                l(1) =   0
                l(2) =   0
                l(3) =   1
                l(4) =   1
                l(5) =   2
                l(6) =   2

     PseudoPot. # 2 for S  read from file:
     ./s_pbe_v1.4.uspp.F.UPF
     MD5 check sum: 88d86576ff6df21479756cfb9bdac1df
     Pseudo is Ultrasoft + core correction, Zval =  6.0
     Generated by new atomic code, or converted to UPF format
     Using radial grid of  907 points,  6 beta functions with: 
                l(1) =   0
                l(2) =   0
                l(3) =   1
                l(4) =   1
                l(5) =   2
                l(6) =   2
     Q(r) pseudized with  8 coefficients,  rinner =    1.300   1.300   1.300
                                                       1.300   1.300

     atomic species   valence    mass     pseudopotential
     Mo               14.00    95.95000     Mo( 1.00)
     S                 6.00    32.06500     S ( 1.00)

     24 Sym. Ops., with inversion, found (12 have fractional translation)



   Cartesian axes

     site n.     atom                  positions (alat units)
         1        S      tau(   1) = (  -0.0000005   0.5773506   0.6750597  )
         2        S      tau(   2) = (   0.5000005   0.2886748   3.0046378  )
         3        S      tau(   3) = (  -0.0000005   0.5773506   1.6545185  )
         4        S      tau(   4) = (   0.5000005   0.2886748   3.9840967  )
         5        Mo     tau(   5) = (   0.5000005   0.2886748   1.1647891  )
         6        Mo     tau(   6) = (  -0.0000005   0.5773506   3.4943673  )

     -------------------------------------------------
     Parameters for Dispersion (Grimme-D2) Correction:
     -------------------------------------------------
       atom      VdW radius       C_6     

        Mo         3.097        855.833
        S          3.180        193.230

     number of k points=    57
                       cart. coord. in units 2pi/alat
        k(    1) = (   0.0000000   0.0000000   0.0000000), wk =   0.0034722
        k(    2) = (   0.0000000   0.0000000   0.0536578), wk =   0.0069444
        k(    3) = (   0.0000000   0.0000000  -0.1073156), wk =   0.0034722
        k(    4) = (   0.0000000   0.0962250   0.0000000), wk =   0.0208333
        k(    5) = (   0.0000000   0.0962250   0.0536578), wk =   0.0416667
        k(    6) = (   0.0000000   0.0962250  -0.1073156), wk =   0.0208333
        k(    7) = (   0.0000000   0.1924501   0.0000000), wk =   0.0208333
        k(    8) = (   0.0000000   0.1924501   0.0536578), wk =   0.0416667
        k(    9) = (   0.0000000   0.1924501  -0.1073156), wk =   0.0208333
        k(   10) = (   0.0000000   0.2886751   0.0000000), wk =   0.0208333
        k(   11) = (   0.0000000   0.2886751   0.0536578), wk =   0.0416667
        k(   12) = (   0.0000000   0.2886751  -0.1073156), wk =   0.0208333
        k(   13) = (   0.0000000   0.3849002   0.0000000), wk =   0.0208333
        k(   14) = (   0.0000000   0.3849002   0.0536578), wk =   0.0416667
        k(   15) = (   0.0000000   0.3849002  -0.1073156), wk =   0.0208333
        k(   16) = (   0.0000000   0.4811252   0.0000000), wk =   0.0208333
        k(   17) = (   0.0000000   0.4811252   0.0536578), wk =   0.0416667
        k(   18) = (   0.0000000   0.4811252  -0.1073156), wk =   0.0208333
        k(   19) = (   0.0000000  -0.5773503   0.0000000), wk =   0.0104167
        k(   20) = (   0.0000000  -0.5773503   0.0536578), wk =   0.0208333
        k(   21) = (   0.0000000  -0.5773503  -0.1073156), wk =   0.0104167
        k(   22) = (   0.0833333   0.1443376   0.0000000), wk =   0.0208333
        k(   23) = (   0.0833333   0.1443376   0.0536578), wk =   0.0416667
        k(   24) = (   0.0833333   0.1443376  -0.1073156), wk =   0.0208333
        k(   25) = (   0.0833333   0.2405626   0.0000000), wk =   0.0416667
        k(   26) = (   0.0833333   0.2405626   0.0536578), wk =   0.0833333
        k(   27) = (   0.0833333   0.2405626  -0.1073156), wk =   0.0416667
        k(   28) = (   0.0833333   0.3367877   0.0000000), wk =   0.0416667
        k(   29) = (   0.0833333   0.3367877   0.0536578), wk =   0.0833333
        k(   30) = (   0.0833333   0.3367877  -0.1073156), wk =   0.0416667
        k(   31) = (   0.0833333   0.4330127   0.0000000), wk =   0.0416667
        k(   32) = (   0.0833333   0.4330127   0.0536578), wk =   0.0833333
        k(   33) = (   0.0833333   0.4330127  -0.1073156), wk =   0.0416667
        k(   34) = (   0.0833333   0.5292377   0.0000000), wk =   0.0416667
        k(   35) = (   0.0833333   0.5292377   0.0536578), wk =   0.0833333
        k(   36) = (   0.0833333   0.5292377  -0.1073156), wk =   0.0416667
        k(   37) = (   0.1666667   0.2886751   0.0000000), wk =   0.0208333
        k(   38) = (   0.1666667   0.2886751   0.0536578), wk =   0.0416667
        k(   39) = (   0.1666667   0.2886751  -0.1073156), wk =   0.0208333
        k(   40) = (   0.1666667   0.3849002   0.0000000), wk =   0.0416667
        k(   41) = (   0.1666667   0.3849002   0.0536578), wk =   0.0833333
        k(   42) = (   0.1666667   0.3849002  -0.1073156), wk =   0.0416667
        k(   43) = (   0.1666667   0.4811252   0.0000000), wk =   0.0416667
        k(   44) = (   0.1666667   0.4811252   0.0536578), wk =   0.0833333
        k(   45) = (   0.1666667   0.4811252  -0.1073156), wk =   0.0416667
        k(   46) = (   0.1666667   0.5773503   0.0000000), wk =   0.0208333
        k(   47) = (   0.1666667   0.5773503   0.0536578), wk =   0.0416667
        k(   48) = (   0.1666667   0.5773503  -0.1073156), wk =   0.0208333
        k(   49) = (   0.2500000   0.4330127   0.0000000), wk =   0.0208333
        k(   50) = (   0.2500000   0.4330127   0.0536578), wk =   0.0416667
        k(   51) = (   0.2500000   0.4330127  -0.1073156), wk =   0.0208333
        k(   52) = (   0.2500000   0.5292377   0.0000000), wk =   0.0416667
        k(   53) = (   0.2500000   0.5292377   0.0536578), wk =   0.0833333
        k(   54) = (   0.2500000   0.5292377  -0.1073156), wk =   0.0416667
        k(   55) = (   0.3333333   0.5773503   0.0000000), wk =   0.0069444
        k(   56) = (   0.3333333   0.5773503   0.0536578), wk =   0.0138889
        k(   57) = (   0.3333333   0.5773503  -0.1073156), wk =   0.0069444

     Dense  grid:    69455 G-vectors     FFT dimensions: (  36,  36, 150)

     Smooth grid:    24621 G-vectors     FFT dimensions: (  24,  24, 108)

     Estimated max dynamical RAM per process >      85.92 MB

     Estimated total dynamical RAM >     343.68 MB

     Initial potential from superposition of free atoms

     starting charge      51.9979, renormalised to      52.0000
     Starting wfcs are   36 randomized atomic wfcs

     total cpu time spent up to now is        0.7 secs

     Self-consistent Calculation

     iteration #  1     ecut=    35.00 Ry     beta= 0.70
     Davidson diagonalization with overlap
     ethr =  1.00E-02,  avg # of iterations =  2.0

     Threshold (ethr) on eigenvalues was too large:
     Diagonalizing with lowered threshold

     Davidson diagonalization with overlap
     ethr =  3.31E-04,  avg # of iterations =  2.2

     total cpu time spent up to now is        3.2 secs

     total energy              =    -371.08922113 Ry
     estimated scf accuracy    <       0.22098477 Ry

     iteration #  2     ecut=    35.00 Ry     beta= 0.70
     Davidson diagonalization with overlap
     ethr =  4.25E-04,  avg # of iterations =  5.1

     total cpu time spent up to now is        5.0 secs

     total energy              =    -371.05545286 Ry
     estimated scf accuracy    <       0.53198048 Ry

     iteration #  3     ecut=    35.00 Ry     beta= 0.70
     Davidson diagonalization with overlap
     ethr =  4.25E-04,  avg # of iterations =  5.3

     total cpu time spent up to now is        6.7 secs

     total energy              =    -371.16524226 Ry
     estimated scf accuracy    <       0.05994199 Ry

     iteration #  4     ecut=    35.00 Ry     beta= 0.70
     Davidson diagonalization with overlap
     ethr =  1.15E-04,  avg # of iterations =  2.7

     total cpu time spent up to now is        8.1 secs

     total energy              =    -371.16884727 Ry
     estimated scf accuracy    <       0.00721561 Ry

     iteration #  5     ecut=    35.00 Ry     beta= 0.70
     Davidson diagonalization with overlap
     ethr =  1.39E-05,  avg # of iterations =  5.2

     total cpu time spent up to now is        9.9 secs

     total energy              =    -371.17334161 Ry
     estimated scf accuracy    <       0.01493116 Ry

     iteration #  6     ecut=    35.00 Ry     beta= 0.70
     Davidson diagonalization with overlap
     ethr =  1.39E-05,  avg # of iterations =  1.6

     total cpu time spent up to now is       11.1 secs

     total energy              =    -371.17040551 Ry
     estimated scf accuracy    <       0.00678827 Ry

     iteration #  7     ecut=    35.00 Ry     beta= 0.70
     Davidson diagonalization with overlap
     ethr =  1.31E-05,  avg # of iterations =  4.9

     total cpu time spent up to now is       12.8 secs

     total energy              =    -371.17357299 Ry
     estimated scf accuracy    <       0.00591088 Ry

     iteration #  8     ecut=    35.00 Ry     beta= 0.70
     Davidson diagonalization with overlap
     ethr =  1.14E-05,  avg # of iterations =  1.0

     total cpu time spent up to now is       13.8 secs

     total energy              =    -371.17293655 Ry
     estimated scf accuracy    <       0.00376885 Ry

     iteration #  9     ecut=    35.00 Ry     beta= 0.70
     Davidson diagonalization with overlap
     ethr =  7.25E-06,  avg # of iterations =  2.8

     total cpu time spent up to now is       15.0 secs

     total energy              =    -371.17304786 Ry
     estimated scf accuracy    <       0.00068597 Ry

     iteration # 10     ecut=    35.00 Ry     beta= 0.70
     Davidson diagonalization with overlap
     ethr =  1.32E-06,  avg # of iterations =  4.3

     total cpu time spent up to now is       16.6 secs

     total energy              =    -371.17326989 Ry
     estimated scf accuracy    <       0.00004843 Ry

     iteration # 11     ecut=    35.00 Ry     beta= 0.70
     Davidson diagonalization with overlap
     ethr =  9.31E-08,  avg # of iterations =  3.9

     total cpu time spent up to now is       17.9 secs

     total energy              =    -371.17325954 Ry
     estimated scf accuracy    <       0.00008183 Ry

     iteration # 12     ecut=    35.00 Ry     beta= 0.70
     Davidson diagonalization with overlap
     ethr =  9.31E-08,  avg # of iterations =  2.6

     total cpu time spent up to now is       19.2 secs

     total energy              =    -371.17326109 Ry
     estimated scf accuracy    <       0.00001207 Ry

     iteration # 13     ecut=    35.00 Ry     beta= 0.70
     Davidson diagonalization with overlap
     ethr =  2.32E-08,  avg # of iterations =  5.4

     total cpu time spent up to now is       20.8 secs

     total energy              =    -371.17326885 Ry
     estimated scf accuracy    <       0.00000946 Ry

     iteration # 14     ecut=    35.00 Ry     beta= 0.70
     Davidson diagonalization with overlap
     ethr =  1.82E-08,  avg # of iterations =  1.0

     total cpu time spent up to now is       21.9 secs

     total energy              =    -371.17326586 Ry
     estimated scf accuracy    <       0.00001123 Ry

     iteration # 15     ecut=    35.00 Ry     beta= 0.70
     Davidson diagonalization with overlap
     ethr =  1.82E-08,  avg # of iterations =  2.1

     total cpu time spent up to now is       23.0 secs

     total energy              =    -371.17326620 Ry
     estimated scf accuracy    <       0.00000282 Ry

     iteration # 16     ecut=    35.00 Ry     beta= 0.70
     Davidson diagonalization with overlap
     ethr =  5.42E-09,  avg # of iterations =  3.5

     total cpu time spent up to now is       24.3 secs

     total energy              =    -371.17326644 Ry
     estimated scf accuracy    <       0.00000049 Ry

     iteration # 17     ecut=    35.00 Ry     beta= 0.70
     Davidson diagonalization with overlap
     ethr =  9.36E-10,  avg # of iterations =  4.1

     total cpu time spent up to now is       25.8 secs

     total energy              =    -371.17326665 Ry
     estimated scf accuracy    <       0.00000003 Ry

     iteration # 18     ecut=    35.00 Ry     beta= 0.70
     Davidson diagonalization with overlap
     ethr =  6.04E-11,  avg # of iterations =  5.1

     total cpu time spent up to now is       27.3 secs

     total energy              =    -371.17326663 Ry
     estimated scf accuracy    <       0.00000014 Ry

     iteration # 19     ecut=    35.00 Ry     beta= 0.70
     Davidson diagonalization with overlap
     ethr =  6.04E-11,  avg # of iterations =  4.3

     total cpu time spent up to now is       28.8 secs

     total energy              =    -371.17326663 Ry
     estimated scf accuracy    <       0.00000002 Ry

     iteration # 20     ecut=    35.00 Ry     beta= 0.70
     Davidson diagonalization with overlap
     ethr =  3.58E-11,  avg # of iterations =  5.2

     total cpu time spent up to now is       30.4 secs

     total energy              =    -371.17326664 Ry
     estimated scf accuracy    <       0.00000002 Ry

     iteration # 21     ecut=    35.00 Ry     beta= 0.70
     Davidson diagonalization with overlap
     ethr =  3.40E-11,  avg # of iterations =  1.0

     total cpu time spent up to now is       31.4 secs

     total energy              =    -371.17326664 Ry
     estimated scf accuracy    <       0.00000002 Ry

     iteration # 22     ecut=    35.00 Ry     beta= 0.70
     Davidson diagonalization with overlap
     ethr =  3.39E-11,  avg # of iterations =  1.2

     total cpu time spent up to now is       32.5 secs

     End of self-consistent calculation

          k = 0.0000 0.0000 0.0000 (  3089 PWs)   bands (ev):

   -53.4623 -53.4622 -27.6049 -27.6048 -27.4053 -27.4053 -27.4053 -27.4053
    -6.6899  -6.6709  -5.3833  -5.3483   1.7165   1.8795   4.7757   4.7757
     4.7762   4.7762   5.3771   5.8897   5.8898   5.8917   5.8918   5.9484
     7.2354   7.6234

          k = 0.0000 0.0000 0.0537 (  3083 PWs)   bands (ev):

   -53.4623 -53.4622 -27.6049 -27.6048 -27.4053 -27.4053 -27.4053 -27.4053
    -6.6872  -6.6737  -5.3782  -5.3534   1.7390   1.8542   4.7758   4.7758
     4.7762   4.7762   5.4493   5.8473   5.8900   5.8901   5.8914   5.8915
     7.3112   7.5797

          k = 0.0000 0.0000-0.1073 (  3076 PWs)   bands (ev):

   -53.4623 -53.4622 -27.6049 -27.6048 -27.4053 -27.4053 -27.4053 -27.4053
    -6.6805  -6.6805  -5.3657  -5.3657   1.7952   1.7952   4.7760   4.7760
     4.7760   4.7760   5.6353   5.6353   5.8907   5.8907   5.8908   5.8908
     7.4601   7.4602

          k = 0.0000 0.0962 0.0000 (  3091 PWs)   bands (ev):

   -53.4598 -53.4598 -27.5999 -27.5999 -27.4307 -27.4307 -27.4111 -27.4111
    -6.5878  -6.5689  -5.3413  -5.3075   1.8333   1.9955   4.5488   4.5499
     4.8829   4.8838   4.9992   5.2704   5.7269   5.7292   6.1250   6.3969
     7.2097   7.5337

          k = 0.0000 0.0962 0.0537 (  3085 PWs)   bands (ev):

   -53.4598 -53.4598 -27.5999 -27.5999 -27.4307 -27.4307 -27.4111 -27.4111
    -6.5851  -6.5718  -5.3363  -5.3124   1.8557   1.9702   4.5489   4.5497
     4.8830   4.8836   5.0431   5.2354   5.7272   5.7289   6.1498   6.3349
     7.2763   7.4989

          k = 0.0000 0.0962-0.1073 (  3086 PWs)   bands (ev):

   -53.4598 -53.4598 -27.5999 -27.5999 -27.4307 -27.4307 -27.4111 -27.4111
    -6.5785  -6.5785  -5.3243  -5.3243   1.9115   1.9115   4.5493   4.5493
     4.8833   4.8833   5.1436   5.1436   5.7280   5.7280   6.2253   6.2254
     7.4019   7.4019

          k = 0.0000 0.1925 0.0000 (  3074 PWs)   bands (ev):

   -53.4530 -53.4530 -27.5863 -27.5863 -27.4996 -27.4996 -27.4268 -27.4268
    -6.2976  -6.2793  -5.2220  -5.1918   2.1292   2.2840   4.0263   4.0339
     4.4081   4.5801   5.1820   5.1837   5.3428   5.3458   6.2075   6.4824
     7.0454   7.2096

          k = 0.0000 0.1925 0.0537 (  3085 PWs)   bands (ev):

   -53.4530 -53.4530 -27.5863 -27.5863 -27.4996 -27.4996 -27.4268 -27.4268
    -6.2950  -6.2821  -5.2176  -5.1962   2.1504   2.2596   4.0271   4.0323
     4.4364   4.5578   5.1823   5.1835   5.3433   5.3454   6.2382   6.4284
     7.0814   7.1933

          k = 0.0000 0.1925-0.1073 (  3098 PWs)   bands (ev):

   -53.4530 -53.4530 -27.5863 -27.5863 -27.4996 -27.4996 -27.4268 -27.4268
    -6.2886  -6.2886  -5.2068  -5.2068   2.2034   2.2034   4.0293   4.0293
     4.5001   4.5001   5.1829   5.1829   5.3443   5.3443   6.3228   6.3228
     7.1462   7.1462

          k = 0.0000 0.2887 0.0000 (  3088 PWs)   bands (ev):

   -53.4437 -53.4437 -27.5925 -27.5925 -27.5677 -27.5676 -27.4483 -27.4482
    -5.8684  -5.8515  -5.0468  -5.0221   2.3575   2.4679   3.5705   3.6160
     3.7896   3.8930   4.9119   4.9154   5.6019   5.6054   5.9926   6.2047
     6.6685   6.7178

          k = 0.0000 0.2887 0.0537 (  3093 PWs)   bands (ev):

   -53.4437 -53.4437 -27.5925 -27.5925 -27.5677 -27.5676 -27.4483 -27.4482
    -5.8660  -5.8540  -5.0432  -5.0256   2.3728   2.4508   3.5746   3.6053
     3.8100   3.8815   4.9124   4.9149   5.6024   5.6049   6.0201   6.1690
     6.6791   6.7129

          k = 0.0000 0.2887-0.1073 (  3078 PWs)   bands (ev):

   -53.4437 -53.4437 -27.5925 -27.5925 -27.5677 -27.5676 -27.4483 -27.4482
    -5.8601  -5.8601  -5.0343  -5.0343   2.4109   2.4109   3.5871   3.5871
     3.8497   3.8497   4.9137   4.9137   5.6036   5.6037   6.0906   6.0906
     6.6987   6.6988

          k = 0.0000 0.3849 0.0000 (  3074 PWs)   bands (ev):

   -53.4344 -53.4344 -27.6841 -27.6841 -27.5490 -27.5489 -27.4696 -27.4696
    -5.3873  -5.3732  -4.8542  -4.8362   2.1458   2.1932   3.2099   3.2689
     3.4659   3.5530   4.5490   4.5529   5.7280   5.8718   6.0232   6.0299
     6.4192   6.4656

          k = 0.0000 0.3849 0.0537 (  3065 PWs)   bands (ev):

   -53.4344 -53.4344 -27.6841 -27.6841 -27.5490 -27.5489 -27.4696 -27.4696
    -5.3853  -5.3753  -4.8515  -4.8388   2.1526   2.1861   3.2166   3.2575
     3.4816   3.5422   4.5496   4.5523   5.7475   5.8489   6.0242   6.0289
     6.4276   6.4601

          k = 0.0000 0.3849-0.1073 (  3060 PWs)   bands (ev):

   -53.4344 -53.4344 -27.6841 -27.6841 -27.5490 -27.5489 -27.4696 -27.4696
    -5.3804  -5.3804  -4.8451  -4.8451   2.1691   2.1692   3.2349   3.2349
     3.5142   3.5142   4.5509   4.5510   5.7966   5.7966   6.0266   6.0266
     6.4452   6.4453

          k = 0.0000 0.4811 0.0000 (  3076 PWs)   bands (ev):

   -53.4276 -53.4275 -27.7503 -27.7503 -27.5352 -27.5352 -27.4851 -27.4851
    -4.9874  -4.9776  -4.6987  -4.6880   1.7880   1.8181   2.7831   2.8172
     3.3751   3.4565   4.3133   4.3174   5.5727   5.6477   6.3169   6.3273
     6.5871   6.6339

          k = 0.0000 0.4811 0.0537 (  3081 PWs)   bands (ev):

   -53.4276 -53.4275 -27.7503 -27.7503 -27.5352 -27.5352 -27.4851 -27.4851
    -4.9860  -4.9791  -4.6971  -4.6895   1.7923   1.8136   2.7876   2.8115
     3.3877   3.4452   4.3139   4.3168   5.5831   5.6361   6.3184   6.3258
     6.5945   6.6276

          k = 0.0000 0.4811-0.1073 (  3066 PWs)   bands (ev):

   -53.4276 -53.4275 -27.7503 -27.7503 -27.5352 -27.5352 -27.4851 -27.4851
    -4.9826  -4.9825  -4.6933  -4.6932   1.8029   1.8029   2.7990   2.7990
     3.4171   3.4171   4.3153   4.3154   5.6090   5.6090   6.3221   6.3221
     6.6116   6.6116

          k = 0.0000-0.5774 0.0000 (  3064 PWs)   bands (ev):

   -53.4251 -53.4250 -27.7744 -27.7744 -27.5302 -27.5302 -27.4908 -27.4908
    -4.8267  -4.8200  -4.6376  -4.6312   1.6335   1.6612   2.6252   2.6504
     3.3025   3.3794   4.2321   4.2363   5.5401   5.5585   6.4172   6.4293
     6.7745   6.7788

          k = 0.0000-0.5774 0.0537 (  3068 PWs)   bands (ev):

   -53.4251 -53.4250 -27.7744 -27.7744 -27.5302 -27.5302 -27.4908 -27.4908
    -4.8258  -4.8210  -4.6366  -4.6321   1.6375   1.6571   2.6285   2.6463
     3.3143   3.3686   4.2327   4.2356   5.5427   5.5557   6.4190   6.4276
     6.7751   6.7782

          k = 0.0000-0.5774-0.1073 (  3088 PWs)   bands (ev):

   -53.4251 -53.4250 -27.7744 -27.7744 -27.5302 -27.5302 -27.4908 -27.4908
    -4.8235  -4.8234  -4.6344  -4.6344   1.6472   1.6472   2.6369   2.6369
     3.3419   3.3420   4.2341   4.2341   5.5491   5.5491   6.4233   6.4233
     6.7767   6.7767

          k = 0.0833 0.1443 0.0000 (  3091 PWs)   bands (ev):

   -53.4552 -53.4551 -27.5906 -27.5906 -27.4766 -27.4766 -27.4231 -27.4231
    -6.3916  -6.3731  -5.2605  -5.2291   2.0431   2.2018   4.1826   4.1840
     4.6069   4.8139   5.0782   5.0793   5.3474   5.3549   6.3104   6.5816
     7.1149   7.3251

          k = 0.0833 0.1443 0.0537 (  3093 PWs)   bands (ev):

   -53.4552 -53.4551 -27.5906 -27.5906 -27.4766 -27.4766 -27.4231 -27.4231
    -6.3889  -6.3758  -5.2559  -5.2337   2.0648   2.1768   4.1826   4.1836
     4.6403   4.7866   5.0784   5.0792   5.3484   5.3537   6.3385   6.5242
     7.1617   7.3043

          k = 0.0833 0.1443-0.1073 (  3088 PWs)   bands (ev):

   -53.4552 -53.4551 -27.5906 -27.5906 -27.4766 -27.4766 -27.4231 -27.4231
    -6.3824  -6.3824  -5.2447  -5.2447   2.1193   2.1193   4.1829   4.1829
     4.7164   4.7165   5.0788   5.0788   5.3509   5.3509   6.4184   6.4184
     7.2443   7.2444

          k = 0.0833 0.2406 0.0000 (  3089 PWs)   bands (ev):

   -53.4471 -53.4471 -27.5745 -27.5744 -27.5542 -27.5542 -27.4450 -27.4450
    -6.0309  -6.0134  -5.1123  -5.0854   2.3343   2.4711   3.7106   3.7293
     4.1039   4.2341   4.7998   4.8261   5.3907   5.3929   6.3086   6.5164
     6.8322   6.9052

          k = 0.0833 0.2406 0.0537 (  3090 PWs)   bands (ev):

   -53.4471 -53.4471 -27.5745 -27.5744 -27.5542 -27.5542 -27.4450 -27.4450
    -6.0284  -6.0160  -5.1083  -5.0893   2.3530   2.4496   3.7124   3.7252
     4.1267   4.2182   4.8034   4.8220   5.3910   5.3926   6.3330   6.4772
     6.8497   6.8988

          k = 0.0833 0.2406-0.1073 (  3094 PWs)   bands (ev):

   -53.4471 -53.4471 -27.5745 -27.5744 -27.5542 -27.5542 -27.4450 -27.4450
    -6.0223  -6.0222  -5.0987  -5.0987   2.3999   2.4000   3.7177   3.7177
     4.1757   4.1757   4.8124   4.8124   5.3918   5.3918   6.3985   6.3985
     6.8791   6.8791

          k = 0.0833 0.3368 0.0000 (  3079 PWs)   bands (ev):

   -53.4378 -53.4378 -27.6424 -27.6424 -27.5558 -27.5558 -27.4704 -27.4704
    -5.5723  -5.5568  -4.9253  -4.9045   2.3395   2.4089   3.4914   3.5160
     3.5528   3.5882   4.4330   4.4777   5.6460   5.6482   6.0528   6.1861
     6.5489   6.5727

          k = 0.0833 0.3368 0.0537 (  3075 PWs)   bands (ev):

   -53.4378 -53.4378 -27.6424 -27.6424 -27.5558 -27.5558 -27.4704 -27.4704
    -5.5701  -5.5591  -4.9222  -4.9075   2.3493   2.3984   3.4924   3.5085
     3.5620   3.5856   4.4401   4.4716   5.6462   5.6478   6.0705   6.1644
     6.5537   6.5702

          k = 0.0833 0.3368-0.1073 (  3084 PWs)   bands (ev):

   -53.4378 -53.4378 -27.6424 -27.6424 -27.5558 -27.5558 -27.4704 -27.4704
    -5.5647  -5.5646  -4.9148  -4.9148   2.3735   2.3735   3.4979   3.4979
     3.5765   3.5765   4.4563   4.4563   5.6469   5.6469   6.1154   6.1154
     6.5630   6.5630

          k = 0.0833 0.4330 0.0000 (  3057 PWs)   bands (ev):

   -53.4297 -53.4297 -27.7178 -27.7178 -27.5396 -27.5396 -27.4923 -27.4922
    -5.1238  -5.1120  -4.7460  -4.7322   2.0210   2.0557   2.9231   2.9531
     3.4821   3.5637   4.2719   4.3067   5.7538   5.7707   5.7828   5.8311
     6.6470   6.6682

          k = 0.0833 0.4330 0.0537 (  3069 PWs)   bands (ev):

   -53.4297 -53.4297 -27.7178 -27.7178 -27.5396 -27.5396 -27.4923 -27.4922
    -5.1221  -5.1138  -4.7439  -4.7342   2.0260   2.0505   2.9271   2.9483
     3.4942   3.5518   4.2776   4.3021   5.7571   5.7690   5.7882   5.8227
     6.6504   6.6654

          k = 0.0833 0.4330-0.1073 (  3062 PWs)   bands (ev):

   -53.4297 -53.4297 -27.7178 -27.7178 -27.5396 -27.5396 -27.4923 -27.4922
    -5.1180  -5.1180  -4.7390  -4.7390   2.0382   2.0382   2.9373   2.9373
     3.5231   3.5232   4.2904   4.2904   5.7637   5.7637   5.8042   5.8042
     6.6582   6.6582

          k = 0.0833 0.5292 0.0000 (  3090 PWs)   bands (ev):

   -53.4251 -53.4250 -27.7610 -27.7610 -27.5302 -27.5302 -27.5049 -27.5048
    -4.8339  -4.8266  -4.6326  -4.6252   1.7710   1.7986   2.5903   2.6068
     3.3614   3.4366   4.2233   4.2432   5.5728   5.6101   5.9008   5.9128
     6.8892   6.9080

          k = 0.0833 0.5292 0.0537 (  3076 PWs)   bands (ev):

   -53.4251 -53.4250 -27.7610 -27.7610 -27.5302 -27.5302 -27.5049 -27.5048
    -4.8329  -4.8277  -4.6315  -4.6262   1.7750   1.7945   2.5925   2.6041
     3.3725   3.4256   4.2266   4.2407   5.5778   5.6042   5.9028   5.9112
     6.8921   6.9054

          k = 0.0833 0.5292-0.1073 (  3068 PWs)   bands (ev):

   -53.4251 -53.4250 -27.7610 -27.7610 -27.5302 -27.5302 -27.5049 -27.5048
    -4.8303  -4.8303  -4.6288  -4.6288   1.7847   1.7847   2.5981   2.5981
     3.3991   3.3991   4.2340   4.2340   5.5905   5.5905   5.9072   5.9072
     6.8988   6.8988

          k = 0.1667 0.2887 0.0000 (  3091 PWs)   bands (ev):

   -53.4391 -53.4390 -27.6211 -27.6211 -27.5583 -27.5583 -27.4768 -27.4768
    -5.6383  -5.6224  -4.9499  -4.9281   2.4351   2.5194   3.5602   3.6130
     3.7160   3.7611   4.1796   4.2757   5.4312   5.4321   6.3136   6.4324
     6.6134   6.6266

          k = 0.1667 0.2887 0.0537 (  3079 PWs)   bands (ev):

   -53.4391 -53.4390 -27.6211 -27.6211 -27.5583 -27.5583 -27.4768 -27.4768
    -5.6360  -5.6248  -4.9466  -4.9312   2.4470   2.5066   3.5646   3.5998
     3.7279   3.7575   4.1948   4.2628   5.4313   5.4319   6.3289   6.4124
     6.6166   6.6255

          k = 0.1667 0.2887-0.1073 (  3080 PWs)   bands (ev):

   -53.4391 -53.4390 -27.6211 -27.6211 -27.5583 -27.5583 -27.4768 -27.4768
    -5.6305  -5.6304  -4.9389  -4.9389   2.4763   2.4764   3.5785   3.5785
     3.7461   3.7461   4.2299   4.2299   5.4316   5.4316   6.3684   6.3685
     6.6220   6.6220

          k = 0.1667 0.3849 0.0000 (  3064 PWs)   bands (ev):

   -53.4310 -53.4309 -27.6840 -27.6839 -27.5421 -27.5421 -27.5119 -27.5119
    -5.2032  -5.1903  -4.7695  -4.7538   2.2731   2.3146   3.0421   3.0567
     3.6495   3.7168   4.0782   4.1731   5.1679   5.1774   6.0493   6.0979
     6.6554   6.6570

          k = 0.1667 0.3849 0.0537 (  3065 PWs)   bands (ev):

   -53.4310 -53.4309 -27.6840 -27.6839 -27.5421 -27.5421 -27.5119 -27.5119
    -5.2014  -5.1923  -4.7671  -4.7561   2.2791   2.3084   3.0442   3.0545
     3.6575   3.7044   4.0950   4.1615   5.1692   5.1759   6.0558   6.0901
     6.6557   6.6568

          k = 0.1667 0.3849-0.1073 (  3058 PWs)   bands (ev):

   -53.4310 -53.4309 -27.6840 -27.6839 -27.5421 -27.5421 -27.5119 -27.5119
    -5.1969  -5.1969  -4.7616  -4.7615   2.2937   2.2937   3.0494   3.0494
     3.6788   3.6789   4.1308   4.1308   5.1725   5.1725   6.0723   6.0723
     6.6563   6.6563

          k = 0.1667 0.4811 0.0000 (  3061 PWs)   bands (ev):

   -53.4251 -53.4250 -27.7284 -27.7284 -27.5387 -27.5387 -27.5302 -27.5302
    -4.8479  -4.8395  -4.6223  -4.6132   2.0926   2.1202   2.5235   2.5299
     3.5475   3.6110   4.1737   4.2417   5.0401   5.0615   5.6944   5.7255
     6.8965   6.9124

          k = 0.1667 0.4811 0.0537 (  3071 PWs)   bands (ev):

   -53.4251 -53.4250 -27.7284 -27.7284 -27.5387 -27.5387 -27.5302 -27.5302
    -4.8468  -4.8408  -4.6210  -4.6145   2.0966   2.1161   2.5244   2.5289
     3.5560   3.6007   4.1849   4.2328   5.0433   5.0584   5.6985   5.7205
     6.8989   6.9102

          k = 0.1667 0.4811-0.1073 (  3060 PWs)   bands (ev):

   -53.4251 -53.4250 -27.7284 -27.7284 -27.5387 -27.5387 -27.5302 -27.5302
    -4.8438  -4.8438  -4.6177  -4.6177   2.1063   2.1063   2.5267   2.5267
     3.5774   3.5774   4.2100   4.2100   5.0509   5.0509   5.7090   5.7090
     6.9047   6.9047

          k = 0.1667 0.5774 0.0000 (  3080 PWs)   bands (ev):

   -53.4229 -53.4229 -27.7444 -27.7444 -27.5487 -27.5487 -27.5259 -27.5258
    -4.7075  -4.7022  -4.5640  -4.5589   2.0275   2.0520   2.3357   2.3381
     3.4257   3.4899   4.2535   4.3026   5.0456   5.0645   5.5144   5.5579
     7.0707   7.0933

          k = 0.1667 0.5774 0.0537 (  3074 PWs)   bands (ev):

   -53.4229 -53.4229 -27.7444 -27.7444 -27.5487 -27.5487 -27.5259 -27.5258
    -4.7067  -4.7030  -4.5633  -4.5597   2.0311   2.0483   2.3361   2.3378
     3.4345   3.4799   4.2615   4.2961   5.0485   5.0619   5.5203   5.5511
     7.0741   7.0901

          k = 0.1667 0.5774-0.1073 (  3072 PWs)   bands (ev):

   -53.4229 -53.4229 -27.7444 -27.7444 -27.5487 -27.5487 -27.5259 -27.5258
    -4.7049  -4.7049  -4.5614  -4.5614   2.0396   2.0396   2.3369   2.3369
     3.4566   3.4567   4.2796   4.2796   5.0553   5.0553   5.5352   5.5352
     7.0822   7.0822

          k = 0.2500 0.4330 0.0000 (  3066 PWs)   bands (ev):

   -53.4251 -53.4250 -27.7066 -27.7066 -27.5611 -27.5611 -27.5302 -27.5302
    -4.8549  -4.8459  -4.6171  -4.6072   2.2860   2.3145   2.4878   2.4992
     3.7895   3.8135   4.1405   4.2313   4.4899   4.5139   5.7794   5.7903
     6.8768   6.8864

          k = 0.2500 0.4330 0.0537 (  3062 PWs)   bands (ev):

   -53.4251 -53.4250 -27.7066 -27.7066 -27.5611 -27.5611 -27.5302 -27.5302
    -4.8536  -4.8473  -4.6156  -4.6086   2.2900   2.3102   2.4896   2.4976
     3.7912   3.8078   4.1561   4.2199   4.4935   4.5105   5.7805   5.7882
     6.8783   6.8850

          k = 0.2500 0.4330-0.1073 (  3068 PWs)   bands (ev):

   -53.4251 -53.4250 -27.7066 -27.7066 -27.5611 -27.5611 -27.5302 -27.5302
    -4.8505  -4.8505  -4.6121  -4.6121   2.3000   2.3000   2.4937   2.4937
     3.7976   3.7977   4.1901   4.1901   4.5022   4.5022   5.7838   5.7838
     6.8817   6.8817

          k = 0.2500 0.5292 0.0000 (  3058 PWs)   bands (ev):

   -53.4216 -53.4216 -27.7113 -27.7112 -27.5979 -27.5979 -27.5234 -27.5233
    -4.6386  -4.6342  -4.5192  -4.5147   2.1463   2.1573   2.4240   2.4435
     3.5737   3.6097   4.1855   4.2147   4.3513   4.4146   5.4361   5.4746
     7.1824   7.2023

          k = 0.2500 0.5292 0.0537 (  3063 PWs)   bands (ev):

   -53.4216 -53.4216 -27.7113 -27.7112 -27.5979 -27.5979 -27.5234 -27.5233
    -4.6380  -4.6349  -4.5185  -4.5154   2.1479   2.1556   2.4269   2.4407
     3.5784   3.6038   4.1881   4.2085   4.3637   4.4080   5.4411   5.4683
     7.1853   7.1994

          k = 0.2500 0.5292-0.1073 (  3058 PWs)   bands (ev):

   -53.4216 -53.4216 -27.7113 -27.7112 -27.5979 -27.5979 -27.5234 -27.5233
    -4.6365  -4.6364  -4.5169  -4.5169   2.1517   2.1517   2.4339   2.4339
     3.5905   3.5905   4.1966   4.1966   4.3886   4.3886   5.4540   5.4540
     7.1924   7.1924

          k = 0.3333 0.5774 0.0000 (  3030 PWs)   bands (ev):

   -53.4204 -53.4204 -27.6838 -27.6838 -27.6408 -27.6408 -27.5209 -27.5208
    -4.5594  -4.5594  -4.4771  -4.4770   1.9988   2.0114   2.8296   2.8296
     3.3358   3.3588   3.8503   3.8504   4.5427   4.5427   5.2686   5.2686
     7.3748   7.3945

          k = 0.3333 0.5774 0.0537 (  3051 PWs)   bands (ev):

   -53.4204 -53.4204 -27.6838 -27.6838 -27.6408 -27.6408 -27.5209 -27.5208
    -4.5594  -4.5594  -4.4771  -4.4770   2.0005   2.0095   2.8298   2.8298
     3.3392   3.3554   3.8490   3.8490   4.5452   4.5452   5.2671   5.2671
     7.3776   7.3915

          k = 0.3333 0.5774-0.1073 (  3048 PWs)   bands (ev):

   -53.4204 -53.4204 -27.6838 -27.6838 -27.6408 -27.6408 -27.5209 -27.5208
    -4.5594  -4.5594  -4.4771  -4.4770   2.0050   2.0050   2.8300   2.8300
     3.3473   3.3473   3.8477   3.8477   4.5477   4.5477   5.2657   5.2657
     7.3845   7.3845

     highest occupied level (ev):     7.6234

!    total energy              =    -371.17326663 Ry
     estimated scf accuracy    <          8.4E-09 Ry

     The total energy is the sum of the following terms:
     one-electron contribution =    -317.47124428 Ry
     hartree contribution      =     174.65820614 Ry
     xc contribution           =     -65.12866662 Ry
     ewald contribution        =    -163.13349451 Ry
     Dispersion Correction     =      -0.09806736 Ry

     convergence has been achieved in  22 iterations

     Forces acting on atoms (cartesian axes, Ry/au):

     atom    1 type  2   force =    -0.00000000   -0.00000000   -0.00193672
     atom    2 type  2   force =     0.00000000    0.00000000   -0.00193672
     atom    3 type  2   force =     0.00000000   -0.00000000    0.00193672
     atom    4 type  2   force =     0.00000000    0.00000000    0.00193672
     atom    5 type  1   force =     0.00000000    0.00000000    0.00000000
     atom    6 type  1   force =     0.00000000    0.00000000    0.00000000

     Total force =     0.003873     Total SCF correction =     0.000189


     Computing stress (Cartesian axis) and pressure

          total   stress  (Ry/bohr**3)                   (kbar)     P=       -0.14
   0.00002128   0.00000000   0.00000000            3.13        0.00        0.00
   0.00000000   0.00002128   0.00000000            0.00        3.13        0.00
   0.00000000   0.00000000  -0.00004534            0.00        0.00       -6.67


     Writing all to output data dir ./DFT-D3/fixed/MoS2.DFT-D3.fixed.save/
 
     init_run     :      0.56s CPU      0.60s WALL (       1 calls)
     electrons    :     30.55s CPU     31.88s WALL (       1 calls)
     forces       :      0.21s CPU      0.23s WALL (       1 calls)
     force_london :      0.04s CPU      0.04s WALL (       1 calls)
     stress       :      1.58s CPU      1.61s WALL (       1 calls)
     stres_london :      0.05s CPU      0.05s WALL (       1 calls)

     Called by init_run:
     wfcinit      :      0.36s CPU      0.40s WALL (       1 calls)
     potinit      :      0.01s CPU      0.01s WALL (       1 calls)
     hinit0       :      0.04s CPU      0.04s WALL (       1 calls)

     Called by electrons:
     c_bands      :     25.42s CPU     26.21s WALL (      23 calls)
     sum_band     :      4.26s CPU      4.62s WALL (      23 calls)
     v_of_rho     :      0.20s CPU      0.21s WALL (      23 calls)
     newd         :      0.61s CPU      0.77s WALL (      23 calls)
     mix_rho      :      0.03s CPU      0.03s WALL (      23 calls)
     energy_londo :      0.05s CPU      0.05s WALL (       1 calls)

     Called by c_bands:
     init_us_2    :      0.45s CPU      0.46s WALL (    2793 calls)
     init_us_2:cp :      0.45s CPU      0.46s WALL (    2793 calls)
     cegterg      :     21.48s CPU     22.17s WALL (    1311 calls)

     Called by *egterg:
     cdiaghg      :      2.14s CPU      2.21s WALL (    5626 calls)
     h_psi        :     15.38s CPU     15.89s WALL (    5740 calls)
     s_psi        :      1.23s CPU      1.27s WALL (    5740 calls)
     g_psi        :      0.09s CPU      0.09s WALL (    4372 calls)

     Called by h_psi:
     h_psi:calbec :      1.45s CPU      1.50s WALL (    5740 calls)
     vloc_psi     :     12.59s CPU     13.01s WALL (    5740 calls)
     add_vuspsi   :      1.26s CPU      1.30s WALL (    5740 calls)

     General routines
     calbec       :      2.07s CPU      2.14s WALL (    7336 calls)
     fft          :      0.09s CPU      0.09s WALL (     323 calls)
     ffts         :      0.00s CPU      0.00s WALL (      46 calls)
     fftw         :     11.91s CPU     12.30s WALL (  221570 calls)
     interpolate  :      0.01s CPU      0.01s WALL (      23 calls)
 
     Parallel routines
 
     PWSCF        :     32.95s CPU     34.47s WALL

 
   This run was terminated on:  12:31:19  26Nov2023            

=------------------------------------------------------------------------------=
   JOB DONE.
=------------------------------------------------------------------------------=
