
     Program PWSCF v.7.2 starts on 26Nov2023 at 13: 4:46 

     This program is part of the open-source Quantum ESPRESSO suite
     for quantum simulation of materials; please cite
         "P. Giannozzi et al., J. Phys.:Condens. Matter 21 395502 (2009);
         "P. Giannozzi et al., J. Phys.:Condens. Matter 29 465901 (2017);
         "P. Giannozzi et al., J. Chem. Phys. 152 154105 (2020);
          URL http://www.quantum-espresso.org", 
     in publications or presentations arising from this work. More details at
     http://www.quantum-espresso.org/quote

     Parallel version (MPI), running on     8 processors

     MPI processes distributed on     1 nodes
     5154 MiB available memory on the printing compute node when the environment starts
 
     Waiting for input...
     Reading input from standard input
Warning: card &IONS ignored
Warning: card / ignored

     Current dimensions of program PWSCF are:
     Max number of different atomic species (ntypx) = 10
     Max number of k-points (npk) =  40000
     Max angular momentum in pseudopotentials (lmaxx) =  4

     Atomic positions and unit cell read from directory:
     ./DFT-D3/fixed/MoS2.DFT-D3.fixed.save/
 
 
     R & G space division:  proc/nbgrp/npool/nimage =       8
     Subspace diagonalization in iterative solution of the eigenvalue problem:
     a serial algorithm will be used

 
     Parallelization info
     --------------------
     sticks:   dense  smooth     PW     G-vecs:    dense   smooth      PW
     Min          86      43     13                 8680     3067     529
     Max          88      44     14                 8688     3084     544
     Sum         691     349    109                69455    24621    4307
 
     Using Slab Decomposition
 


     bravais-lattice index     =            4
     lattice parameter (alat)  =       6.0178  a.u.
     unit-cell volume          =     879.3280 (a.u.)^3
     number of atoms/cell      =            6
     number of atomic types    =            2
     number of electrons       =        52.00
     number of Kohn-Sham states=           39
     kinetic-energy cutoff     =      35.0000  Ry
     charge density cutoff     =     280.0000  Ry
     Exchange-correlation=  SLA  PW   PBX  PBC
                           (   1   4   3   4   0   0   0)

     celldm(1)=   6.017799  celldm(2)=   0.000000  celldm(3)=   4.659156
     celldm(4)=   0.000000  celldm(5)=   0.000000  celldm(6)=   0.000000

     crystal axes: (cart. coord. in units of alat)
               a(1) = (   1.000000   0.000000   0.000000 )  
               a(2) = (  -0.500000   0.866025   0.000000 )  
               a(3) = (   0.000000   0.000000   4.659156 )  

     reciprocal axes: (cart. coord. in units 2 pi/alat)
               b(1) = (  1.000000  0.577350  0.000000 )  
               b(2) = (  0.000000  1.154701  0.000000 )  
               b(3) = (  0.000000  0.000000  0.214631 )  


     PseudoPot. # 1 for Mo read from file:
     ./Mo_ONCV_PBE-1.0.oncvpsp.upf
     MD5 check sum: 1b5d28e075c9ccadda658a603575cd1f
     Pseudo is Norm-conserving, Zval = 14.0
     Generated using ONCVPSP code by D. R. Hamann
     Using radial grid of 1526 points,  6 beta functions with: 
                l(1) =   0
                l(2) =   0
                l(3) =   1
                l(4) =   1
                l(5) =   2
                l(6) =   2

     PseudoPot. # 2 for S  read from file:
     ./s_pbe_v1.4.uspp.F.UPF
     MD5 check sum: 88d86576ff6df21479756cfb9bdac1df
     Pseudo is Ultrasoft + core correction, Zval =  6.0
     Generated by new atomic code, or converted to UPF format
     Using radial grid of  907 points,  6 beta functions with: 
                l(1) =   0
                l(2) =   0
                l(3) =   1
                l(4) =   1
                l(5) =   2
                l(6) =   2
     Q(r) pseudized with  8 coefficients,  rinner =    1.300   1.300   1.300
                                                       1.300   1.300

     atomic species   valence    mass     pseudopotential
     Mo               14.00    95.95000     Mo( 1.00)
     S                 6.00    32.06500     S ( 1.00)

     24 Sym. Ops., with inversion, found (12 have fractional translation)



   Cartesian axes

     site n.     atom                  positions (alat units)
         1        S      tau(   1) = (  -0.0000005   0.5773506   0.6750597  )
         2        S      tau(   2) = (   0.5000005   0.2886748   3.0046378  )
         3        S      tau(   3) = (  -0.0000005   0.5773506   1.6545185  )
         4        S      tau(   4) = (   0.5000005   0.2886748   3.9840967  )
         5        Mo     tau(   5) = (   0.5000005   0.2886748   1.1647891  )
         6        Mo     tau(   6) = (  -0.0000005   0.5773506   3.4943673  )

     --------------------------------------------
     DFT-D3 Dispersion Correction (3-body terms):
     --------------------------------------------
       Reference C6 values for interpolation: 

         atom   Coordination number   C6
         S          0.000           268.01
         S          0.995           261.99
         S          1.990           251.62
         Mo         0.000          1691.79
         Mo         1.942          1004.01
         Mo        11.056           674.22

       Values used:

         atom   Coordination number  R0_AB[au]  C6      C8
         S          3.685            3.128    251.62  12327.25
         S          3.685            3.128    251.62  12327.25
         S          3.685            3.128    251.62  12327.25
         S          3.685            3.128    251.62  12327.25
         Mo         9.945            3.547    674.22  77634.20
         Mo         9.945            3.547    674.22  77634.20

         Molecular C6 ( Ry / a.u.^6 ) =     13294.63


     number of k points=   141

     Number of k-points >= 100: set verbosity='high' to print them.

     Dense  grid:    69455 G-vectors     FFT dimensions: (  36,  36, 150)

     Smooth grid:    24621 G-vectors     FFT dimensions: (  24,  24, 108)

     Estimated max dynamical RAM per process >      64.02 MB

     Estimated total dynamical RAM >     512.13 MB

     The potential is recalculated from file :
     ./DFT-D3/fixed/MoS2.DFT-D3.fixed.save/charge-density

     Starting wfcs are   36 randomized atomic wfcs +    3 random wfcs

     Band Structure Calculation
     Davidson diagonalization with overlap
     c_bands:  1 eigenvalues not converged
     c_bands:  1 eigenvalues not converged

     ethr =  1.92E-11,  avg # of iterations = 57.3

     total cpu time spent up to now is       65.6 secs

     End of band structure calculation

     Number of k-points >= 100: set verbosity='high' to print the bands.

     Writing all to output data dir ./DFT-D3/fixed/MoS2.DFT-D3.fixed.save/
 
     init_run     :      0.18s CPU      0.21s WALL (       1 calls)
     electrons    :     55.85s CPU     64.91s WALL (       1 calls)

     Called by init_run:
     wfcinit      :      0.00s CPU      0.00s WALL (       1 calls)
     potinit      :      0.01s CPU      0.01s WALL (       1 calls)
     hinit0       :      0.09s CPU      0.11s WALL (       1 calls)

     Called by electrons:
     c_bands      :     55.85s CPU     64.91s WALL (       1 calls)
     v_of_rho     :      0.01s CPU      0.01s WALL (       1 calls)
     newd         :      0.03s CPU      0.03s WALL (       1 calls)

     Called by c_bands:
     init_us_2    :      0.02s CPU      0.02s WALL (     141 calls)
     init_us_2:cp :      0.02s CPU      0.02s WALL (     141 calls)
     cegterg      :     54.17s CPU     63.01s WALL (     472 calls)

     Called by *egterg:
     cdiaghg      :      9.54s CPU     10.71s WALL (    8221 calls)
     h_psi        :     30.37s CPU     35.36s WALL (    8693 calls)
     s_psi        :      1.61s CPU      1.82s WALL (    8693 calls)
     g_psi        :      0.22s CPU      0.24s WALL (    8080 calls)

     Called by h_psi:
     h_psi:calbec :      3.19s CPU      3.77s WALL (    8693 calls)
     vloc_psi     :     25.39s CPU     29.56s WALL (    8693 calls)
     add_vuspsi   :      1.69s CPU      1.91s WALL (    8693 calls)

     General routines
     calbec       :      3.17s CPU      3.76s WALL (    8693 calls)
     fft          :      0.02s CPU      0.02s WALL (      13 calls)
     ffts         :      0.00s CPU      0.00s WALL (       1 calls)
     fftw         :     22.66s CPU     26.47s WALL (  305532 calls)
     interpolate  :      0.00s CPU      0.00s WALL (       1 calls)
 
     Parallel routines
 
     PWSCF        :     56.64s CPU   1m 5.99s WALL

 
   This run was terminated on:  13: 5:52  26Nov2023            

=------------------------------------------------------------------------------=
   JOB DONE.
=------------------------------------------------------------------------------=
