
     Program PWSCF v.7.2 starts on 23Dec2023 at 22:34:12 

     This program is part of the open-source Quantum ESPRESSO suite
     for quantum simulation of materials; please cite
         "P. Giannozzi et al., J. Phys.:Condens. Matter 21 395502 (2009);
         "P. Giannozzi et al., J. Phys.:Condens. Matter 29 465901 (2017);
         "P. Giannozzi et al., J. Chem. Phys. 152 154105 (2020);
          URL http://www.quantum-espresso.org", 
     in publications or presentations arising from this work. More details at
     http://www.quantum-espresso.org/quote

     Parallel version (MPI), running on     4 processors

     MPI processes distributed on     1 nodes
     12927 MiB available memory on the printing compute node when the environment starts
 
     Waiting for input...
     Reading input from standard input
Warning: card &IONS ignored
Warning: card / ignored
Warning: card &CELL ignored
Warning: card / ignored

     Current dimensions of program PWSCF are:
     Max number of different atomic species (ntypx) = 10
     Max number of k-points (npk) =  40000
     Max angular momentum in pseudopotentials (lmaxx) =  4
     file Ba.pbe-spn-kjpaw_psl.1.0.0.UPF: wavefunction(s)  5S 6S renormalized
     file Cu.paw.z_11.ld1.psl.v1.0.0-low.upf: wavefunction(s)  4S 3D renormalized
     file Cu.paw.z_11.ld1.psl.v1.0.0-low.upf: wavefunction(s)  4S 3D renormalized
     file Cu.paw.z_11.ld1.psl.v1.0.0-low.upf: wavefunction(s)  4S 3D renormalized
     file O.pbe-n-kjpaw_psl.0.1.UPF: wavefunction(s)  2P renormalized

     Atomic positions and unit cell read from directory:
     ./YBCO7/YBCO7.save/
     Atomic positions from file used, from input discarded
 
 
     R & G space division:  proc/nbgrp/npool/nimage =       4
     Subspace diagonalization in iterative solution of the eigenvalue problem:
     a serial algorithm will be used

 
     Parallelization info
     --------------------
     sticks:   dense  smooth     PW     G-vecs:    dense   smooth      PW
     Min         776     388    109                98781    34912    5269
     Max         779     389    110                98786    34919    5276
     Sum        3109    1553    437               395131   139659   21083
 
     Using Slab Decomposition
 


     bravais-lattice index     =            6
     lattice parameter (alat)  =       7.3125  a.u.
     unit-cell volume          =    1210.7086 (a.u.)^3
     number of atoms/cell      =           13
     number of atomic types    =            6
     number of electrons       =       106.00
     number of Kohn-Sham states=           64
     kinetic-energy cutoff     =      90.0000  Ry
     charge density cutoff     =     720.0000  Ry
     Exchange-correlation= SLA  PW   PBX  PBC
                           (   1   4   3   4   0   0   0)
     Hubbard projectors: ortho-atomic
     Hubbard parameters of DFT+U (Dudarev formulation) in eV:
     U(Cu1-3d) =  2.5000
     U(Cu2-3d) =  2.5000

     Internal variables: lda_plus_u = T, lda_plus_u_kind = 0

     celldm(1)=   7.312545  celldm(2)=   1.014100  celldm(3)=   3.053186
     celldm(4)=   0.000000  celldm(5)=   0.000000  celldm(6)=   0.000000

     crystal axes: (cart. coord. in units of alat)
               a(1) = (   1.000000   0.000000   0.000000 )  
               a(2) = (   0.000000   1.014100   0.000000 )  
               a(3) = (   0.000000   0.000000   3.053186 )  

     reciprocal axes: (cart. coord. in units 2 pi/alat)
               b(1) = (  1.000000  0.000000  0.000000 )  
               b(2) = (  0.000000  0.986096  0.000000 )  
               b(3) = (  0.000000  0.000000  0.327527 )  


     PseudoPot. # 1 for Y  read from file:
     ~/q-e/pseudo/Y_pbe_v1.uspp.F.UPF
     MD5 check sum: Not computed, couldn't open file
     Pseudo is Ultrasoft + core correction, Zval = 11.0
     Generated by new atomic code, or converted to UPF format
     Using radial grid of  885 points,  6 beta functions with: 
                l(1) =   0
                l(2) =   0
                l(3) =   1
                l(4) =   1
                l(5) =   2
                l(6) =   2
     Q(r) pseudized with  6 coefficients,  rinner =    1.200   1.200   1.200
                                                       1.200   1.200

     PseudoPot. # 2 for Ba read from file:
     ~/q-e/pseudo/Ba.pbe-spn-kjpaw_psl.1.0.0.UPF
     MD5 check sum: Not computed, couldn't open file
     Pseudo is Projector augmented-wave + core cor, Zval = 10.0
     Generated using "atomic" code by A. Dal Corso  v.5.1
     Shape of augmentation charge: PSQ
     Using radial grid of 1251 points,  7 beta functions with: 
                l(1) =   0
                l(2) =   0
                l(3) =   0
                l(4) =   1
                l(5) =   1
                l(6) =   2
                l(7) =   2
     Q(r) pseudized with 0 coefficients 


     PseudoPot. # 3 for Cu read from file:
     ~/q-e/pseudo/Cu.paw.z_11.ld1.psl.v1.0.0-low.upf
     MD5 check sum: Not computed, couldn't open file
     Pseudo is Projector augmented-wave + core cor, Zval = 11.0
     Generated using &quot;atomic&quot; code by A. Dal Corso  v.6.3MaX
     Shape of augmentation charge: PSQ
     Using radial grid of 1199 points,  6 beta functions with: 
                l(1) =   0
                l(2) =   0
                l(3) =   1
                l(4) =   1
                l(5) =   2
                l(6) =   2
     Q(r) pseudized with 0 coefficients 


     PseudoPot. # 4 for Cu read from file:
     ~/q-e/pseudo/Cu.paw.z_11.ld1.psl.v1.0.0-low.upf
     MD5 check sum: Not computed, couldn't open file
     Pseudo is Projector augmented-wave + core cor, Zval = 11.0
     Generated using &quot;atomic&quot; code by A. Dal Corso  v.6.3MaX
     Shape of augmentation charge: PSQ
     Using radial grid of 1199 points,  6 beta functions with: 
                l(1) =   0
                l(2) =   0
                l(3) =   1
                l(4) =   1
                l(5) =   2
                l(6) =   2
     Q(r) pseudized with 0 coefficients 


     PseudoPot. # 5 for Cu read from file:
     ~/q-e/pseudo/Cu.paw.z_11.ld1.psl.v1.0.0-low.upf
     MD5 check sum: Not computed, couldn't open file
     Pseudo is Projector augmented-wave + core cor, Zval = 11.0
     Generated using &quot;atomic&quot; code by A. Dal Corso  v.6.3MaX
     Shape of augmentation charge: PSQ
     Using radial grid of 1199 points,  6 beta functions with: 
                l(1) =   0
                l(2) =   0
                l(3) =   1
                l(4) =   1
                l(5) =   2
                l(6) =   2
     Q(r) pseudized with 0 coefficients 


     PseudoPot. # 6 for O  read from file:
     ~/q-e/pseudo/O.pbe-n-kjpaw_psl.0.1.UPF
     MD5 check sum: Not computed, couldn't open file
     Pseudo is Projector augmented-wave + core cor, Zval =  6.0
     Generated using "atomic" code by A. Dal Corso  v.5.0.99 svn rev. 10869
     Shape of augmentation charge: BESSEL
     Using radial grid of 1095 points,  4 beta functions with: 
                l(1) =   0
                l(2) =   0
                l(3) =   1
                l(4) =   1
     Q(r) pseudized with 0 coefficients 


     atomic species   valence    mass     pseudopotential
     Y                11.00    88.90584     Y ( 1.00)
     Ba               10.00   137.32700     Ba( 1.00)
     Cu               11.00    63.54600     Cu( 1.00)
     Cu1              11.00    63.54600     Cu( 1.00)
     Cu2              11.00    63.54600     Cu( 1.00)
     O                 6.00    15.99900     O ( 1.00)

     Starting magnetic structure 
     atomic species   magnetization
     Y               0.000
     Ba              0.000
     Cu              0.000
     Cu1             0.000
     Cu2             0.000
     O               0.000

      4 Sym. Ops. (no inversion) found



   Cartesian axes

     site n.     atom                  positions (alat units)
         1        Y      tau(   1) = (   0.5000000   0.5070498   1.5265948  )
         2        Ba     tau(   2) = (   0.5000000   0.5070498   0.5779740  )
         3        Ba     tau(   3) = (   0.5000000   0.5070498   2.4752116  )
         4        Cu     tau(   4) = (   0.0000000   0.0000000  -0.0000023  )
         5        Cu1    tau(   5) = (   0.0000000   0.0000000   1.1287525  )
         6        Cu2    tau(   6) = (   0.0000000   0.0000000   1.9244373  )
         7        O      tau(   7) = (   0.5000000   0.0000000   1.1570864  )
         8        O      tau(   8) = (   0.5000000   0.0000000   1.8961039  )
         9        O      tau(   9) = (   0.0000000   0.5070498   1.1554882  )
        10        O      tau(  10) = (   0.0000000   0.5070498   1.8977009  )
        11        O      tau(  11) = (   0.0000000   0.5070498  -0.0000029  )
        12        O      tau(  12) = (   0.0000000   0.0000000   0.4762009  )
        13        O      tau(  13) = (   0.0000000   0.0000000   2.5769801  )

     number of k points=    27 (tetrahedron method)
                       cart. coord. in units 2pi/alat
        k(    1) = (   0.0000000   0.0000000   0.0000000), wk =   0.0156250
        k(    2) = (   0.0000000   0.0000000   0.0818817), wk =   0.0312500
        k(    3) = (   0.0000000   0.0000000  -0.1637633), wk =   0.0156250
        k(    4) = (   0.0000000   0.2465241   0.0000000), wk =   0.0312500
        k(    5) = (   0.0000000   0.2465241   0.0818817), wk =   0.0625000
        k(    6) = (   0.0000000   0.2465241  -0.1637633), wk =   0.0312500
        k(    7) = (   0.0000000  -0.4930482   0.0000000), wk =   0.0156250
        k(    8) = (   0.0000000  -0.4930482   0.0818817), wk =   0.0312500
        k(    9) = (   0.0000000  -0.4930482  -0.1637633), wk =   0.0156250
        k(   10) = (   0.2500000   0.0000000   0.0000000), wk =   0.0312500
        k(   11) = (   0.2500000   0.0000000   0.0818817), wk =   0.0625000
        k(   12) = (   0.2500000   0.0000000  -0.1637633), wk =   0.0312500
        k(   13) = (   0.2500000   0.2465241   0.0000000), wk =   0.0625000
        k(   14) = (   0.2500000   0.2465241   0.0818817), wk =   0.1250000
        k(   15) = (   0.2500000   0.2465241  -0.1637633), wk =   0.0625000
        k(   16) = (   0.2500000  -0.4930482   0.0000000), wk =   0.0312500
        k(   17) = (   0.2500000  -0.4930482   0.0818817), wk =   0.0625000
        k(   18) = (   0.2500000  -0.4930482  -0.1637633), wk =   0.0312500
        k(   19) = (  -0.5000000   0.0000000   0.0000000), wk =   0.0156250
        k(   20) = (  -0.5000000   0.0000000   0.0818817), wk =   0.0312500
        k(   21) = (  -0.5000000   0.0000000  -0.1637633), wk =   0.0156250
        k(   22) = (  -0.5000000   0.2465241   0.0000000), wk =   0.0312500
        k(   23) = (  -0.5000000   0.2465241   0.0818817), wk =   0.0625000
        k(   24) = (  -0.5000000   0.2465241  -0.1637633), wk =   0.0312500
        k(   25) = (  -0.5000000  -0.4930482   0.0000000), wk =   0.0156250
        k(   26) = (  -0.5000000  -0.4930482   0.0818817), wk =   0.0312500
        k(   27) = (  -0.5000000  -0.4930482  -0.1637633), wk =   0.0156250

     Dense  grid:   395131 G-vectors     FFT dimensions: (  64,  64, 192)

     Smooth grid:   139659 G-vectors     FFT dimensions: (  45,  45, 135)

     Estimated max dynamical RAM per process >     406.83 MB

     Estimated total dynamical RAM >       1.59 GB
     Generating pointlists ...
     new r_m :   0.2569 (alat units)  1.8782 (a.u.) for type    1
     new r_m :   0.2967 (alat units)  2.1698 (a.u.) for type    2
     new r_m :   0.1964 (alat units)  1.4364 (a.u.) for type    3
     new r_m :   0.2066 (alat units)  1.5106 (a.u.) for type    4
     new r_m :   0.2066 (alat units)  1.5106 (a.u.) for type    5
     new r_m :   0.1964 (alat units)  1.4364 (a.u.) for type    6

     The potential is recalculated from file :
     ./YBCO7/YBCO7.save/charge-density


     negative rho (up, down):  2.244E-02 2.244E-02

     STARTING HUBBARD OCCUPATIONS:

     =================== HUBBARD OCCUPATIONS ===================
     ------------------------ ATOM    5 ------------------------
     Tr[ns(  5)] (up, down, total) =   4.70403  4.70405  9.40808
     Atomic magnetic moment for atom   5 =  -0.00002
     SPIN  1
     eigenvalues:
       0.757  0.962  0.994  0.994  0.996
     eigenvectors (columns):
      -0.019  1.000 -0.000 -0.000  0.000
      -0.000  0.000  0.000  1.000  0.000
      -0.000  0.000  1.000 -0.000  0.000
       1.000  0.019  0.000  0.000 -0.000
       0.000 -0.000 -0.000 -0.000  1.000
     occupation matrix ns (before diag.):
       0.962 -0.000 -0.000  0.004  0.000
      -0.000  0.994 -0.000  0.000  0.000
      -0.000 -0.000  0.994  0.000  0.000
       0.004  0.000  0.000  0.757 -0.000
       0.000  0.000  0.000 -0.000  0.996
     SPIN  2
     eigenvalues:
       0.757  0.962  0.994  0.994  0.996
     eigenvectors (columns):
      -0.019  1.000 -0.000 -0.000  0.000
      -0.000  0.000  0.000  1.000  0.000
      -0.000  0.000  1.000 -0.000  0.000
       1.000  0.019  0.000  0.000 -0.000
       0.000 -0.000 -0.000 -0.000  1.000
     occupation matrix ns (before diag.):
       0.962 -0.000 -0.000  0.004  0.000
      -0.000  0.994 -0.000  0.000  0.000
      -0.000 -0.000  0.994  0.000  0.000
       0.004  0.000  0.000  0.757 -0.000
       0.000  0.000  0.000 -0.000  0.996
     ------------------------ ATOM    6 ------------------------
     Tr[ns(  6)] (up, down, total) =   4.70402  4.70406  9.40808
     Atomic magnetic moment for atom   6 =  -0.00003
     SPIN  1
     eigenvalues:
       0.757  0.962  0.994  0.994  0.996
     eigenvectors (columns):
      -0.019  1.000 -0.000 -0.000  0.000
      -0.000  0.000  0.000  1.000  0.000
      -0.000  0.000  1.000 -0.000  0.000
       1.000  0.019  0.000  0.000 -0.000
       0.000 -0.000 -0.000 -0.000  1.000
     occupation matrix ns (before diag.):
       0.962 -0.000 -0.000  0.004  0.000
      -0.000  0.994 -0.000  0.000  0.000
      -0.000 -0.000  0.994  0.000  0.000
       0.004  0.000  0.000  0.757 -0.000
       0.000  0.000  0.000 -0.000  0.996
     SPIN  2
     eigenvalues:
       0.757  0.962  0.994  0.994  0.996
     eigenvectors (columns):
      -0.019  1.000 -0.000 -0.000  0.000
      -0.000  0.000  0.000  1.000  0.000
      -0.000  0.000  1.000 -0.000  0.000
       1.000  0.019  0.000  0.000 -0.000
       0.000 -0.000 -0.000 -0.000  1.000
     occupation matrix ns (before diag.):
       0.962 -0.000 -0.000  0.004  0.000
      -0.000  0.994 -0.000  0.000  0.000
      -0.000 -0.000  0.994  0.000  0.000
       0.004  0.000  0.000  0.757 -0.000
       0.000  0.000  0.000 -0.000  0.996

     Number of occupied Hubbard levels =   18.8162

     Atomic wfc used for Hubbard projectors are orthogonalized

     Starting wfcs are   78 randomized atomic wfcs
     Checking if some PAW data can be deallocated... 

     Band Structure Calculation
     Davidson diagonalization with overlap
     c_bands:  1 eigenvalues not converged
     c_bands:  1 eigenvalues not converged
     c_bands:  1 eigenvalues not converged
     c_bands:  1 eigenvalues not converged
     c_bands:  1 eigenvalues not converged
     c_bands:  1 eigenvalues not converged
     c_bands:  1 eigenvalues not converged
     c_bands:  1 eigenvalues not converged
     c_bands:  1 eigenvalues not converged
     c_bands:  1 eigenvalues not converged
     c_bands:  1 eigenvalues not converged
     c_bands:  1 eigenvalues not converged
     c_bands:  1 eigenvalues not converged
     c_bands:  1 eigenvalues not converged

     ethr =  9.43E-13,  avg # of iterations = 95.9

     total cpu time spent up to now is      264.7 secs

     End of band structure calculation

 ------ SPIN UP ------------


          k = 0.0000 0.0000 0.0000 ( 17411 PWs)   bands (ev):

   -31.8840 -16.2047 -16.1926 -12.3444 -11.8846 -11.8707  -8.9835  -8.0905
    -7.8980  -7.6304  -7.5729  -6.7388  -6.5846  -1.4133  -1.3874  -1.1875
    -1.1738  -1.0754  -1.0506   4.5463   4.5734   4.6250   4.8393   4.8431
     4.8921   5.7435   5.8010   5.8911   6.1144   6.1383   6.1458   6.1681
     6.2137   6.2162   6.3029   6.4929   6.7427   6.7778   7.0277   7.1418
     7.2266   7.3273   7.3365   7.3793   7.4082   7.5154   7.7564   7.8341
     7.8488   8.5738   8.6855   8.8872   8.9536   9.2287   9.2658  11.8403
    12.8803  13.5110  13.7509  14.3411  14.3951  14.9993  15.5477  15.6304

          k = 0.0000 0.0000 0.0819 ( 17429 PWs)   bands (ev):

   -31.8840 -16.2056 -16.1917 -12.3445 -11.8846 -11.8707  -8.9825  -8.0924
    -7.8980  -7.6307  -7.5721  -6.7391  -6.5837  -1.4335  -1.3673  -1.1886
    -1.1727  -1.0765  -1.0494   4.5453   4.5720   4.6299   4.8402   4.8439
     4.8991   5.7435   5.8010   5.8896   6.0387   6.1392   6.1471   6.1670
     6.2140   6.2217   6.2984   6.4925   6.7165   6.9217   7.0299   7.1537
     7.2266   7.2973   7.3166   7.3645   7.4065   7.5803   7.7579   7.8123
     7.8288   8.5726   8.6277   8.9023   8.9520   9.2299   9.2671  11.9103
    12.8876  13.5646  13.6430  14.2625  14.3411  14.9070  15.4942  15.9803

          k = 0.0000 0.0000-0.1638 ( 17408 PWs)   bands (ev):

   -31.8840 -16.2064 -16.1909 -12.3446 -11.8846 -11.8707  -8.9815  -8.0943
    -7.8980  -7.6309  -7.5714  -6.7395  -6.5829  -1.4455  -1.3554  -1.1896
    -1.1717  -1.0776  -1.0483   4.5442   4.5707   4.6347   4.8411   4.8448
     4.9068   5.7435   5.8010   5.8880   5.9750   6.1401   6.1485   6.1660
     6.2143   6.2279   6.2931   6.4921   6.7114   7.0207   7.0667   7.1845
     7.2266   7.2509   7.2754   7.3532   7.4049   7.6691   7.7436   7.7593
     7.8257   8.5714   8.5722   8.9131   8.9504   9.2312   9.2684  11.9889
    12.8855  13.4982  13.6915  14.1421  14.3411  14.7323  15.7418  16.0461

          k = 0.0000 0.2465 0.0000 ( 17440 PWs)   bands (ev):

   -31.8789 -16.1561 -16.1446 -12.2450 -12.1547 -11.8632  -8.6308  -8.1780
    -7.8443  -7.6625  -7.4410  -6.8815  -6.7746  -1.4374  -1.3728  -1.2164
    -1.1709  -0.9865  -0.9600   3.9409   4.0391   4.5785   4.6728   4.8006
     4.8329   5.0122   5.4031   5.5149   5.5236   5.6618   5.9119   6.1646
     6.1915   6.2187   6.3955   6.4434   6.5166   6.6380   6.9125   6.9418
     7.1052   7.2522   7.4003   7.7146   7.8278   7.9515   7.9985   8.0727
     8.2446   8.5423   8.7525   8.7582   8.9760   9.2379  10.5043  12.8820
    13.5232  14.2665  14.3161  14.7704  14.7827  15.6427  15.7450  15.8956

          k = 0.0000 0.2465 0.0819 ( 17424 PWs)   bands (ev):

   -31.8789 -16.1568 -16.1439 -12.2451 -12.1547 -11.8632  -8.6300  -8.1786
    -7.8435  -7.6649  -7.4399  -6.8821  -6.7737  -1.4490  -1.3610  -1.2135
    -1.1738  -0.9877  -0.9588   3.9474   4.0355   4.5768   4.6736   4.7837
     4.8340   5.0177   5.4037   5.5075   5.5975   5.6623   5.8717   6.0355
     6.1738   6.2407   6.4399   6.4526   6.5436   6.6381   6.8796   7.0425
     7.1151   7.2801   7.3820   7.7431   7.7628   7.9055   7.9667   8.1476
     8.2470   8.5627   8.7019   8.7572   8.9767   9.2220  10.5234  12.8790
    13.5564  14.2664  14.2939  14.6817  14.9486  15.3397  15.7366  15.8788

          k = 0.0000 0.2465-0.1638 ( 17402 PWs)   bands (ev):

   -31.8789 -16.1574 -16.1432 -12.2452 -12.1547 -11.8632  -8.6292  -8.1792
    -7.8426  -7.6673  -7.4388  -6.8827  -6.7728  -1.4581  -1.3517  -1.2102
    -1.1772  -0.9888  -0.9577   3.9544   4.0312   4.5751   4.6736   4.7692
     4.8350   5.0236   5.4042   5.5027   5.6627   5.7449   5.7529   5.9482
     6.1637   6.2553   6.4362   6.4625   6.5737   6.6382   6.8684   7.1041
     7.1256   7.3662   7.3832   7.6044   7.8337   7.8780   7.9098   8.2130
     8.2447   8.5992   8.6299   8.7563   8.9774   9.2062  10.5419  12.8760
    13.5937  14.2517  14.2663  14.7244  15.0304  15.1324  15.6549  15.8451

          k = 0.0000-0.4930 0.0000 ( 17434 PWs)   bands (ev):

   -31.8739 -16.1062 -16.0956 -12.3847 -12.1372 -11.8556  -8.3451  -8.2237
    -7.9002  -7.6201  -7.2372  -7.0214  -7.0141  -1.4110  -1.3403  -1.2615
    -1.2054  -0.8931  -0.8645   3.3133   3.4662   4.0428   4.5411   4.5863
     4.9430   4.9537   5.0134   5.0960   5.5538   5.6591   5.7016   6.0474
     6.0605   6.1800   6.2036   6.3490   6.4596   6.7188   6.8436   6.9090
     7.3136   7.4686   7.5260   7.5308   7.6516   7.9005   8.0686   8.2784
     8.3664   8.6767   8.7436   9.0226   9.1752   9.3010  11.3872  13.6091
    14.2031  14.4718  14.6690  15.2251  15.3313  15.5281  15.8315  16.4181

          k = 0.0000-0.4930 0.0819 ( 17442 PWs)   bands (ev):

   -31.8739 -16.1068 -16.0951 -12.3847 -12.1373 -11.8556  -8.3461  -8.2228
    -7.8974  -7.6219  -7.2428  -7.0176  -7.0131  -1.4248  -1.3262  -1.2603
    -1.2066  -0.8943  -0.8633   3.3181   3.4621   4.0429   4.5047   4.5843
     4.9527   4.9536   5.0158   5.1963   5.5550   5.5844   5.6829   6.0372
     6.0714   6.1307   6.2199   6.3490   6.4516   6.7032   6.9020   6.9356
     7.3612   7.4693   7.5272   7.5440   7.6264   7.8473   8.0686   8.3471
     8.3994   8.6256   8.7432   8.9516   9.1733   9.2980  11.4174  13.6885
    14.2032  14.4919  14.6289  14.9359  15.4008  15.5680  16.0750  16.1427

          k = 0.0000-0.4930-0.1638 ( 17416 PWs)   bands (ev):

   -31.8739 -16.1073 -16.0945 -12.3847 -12.1373 -11.8556  -8.3471  -8.2219
    -7.8945  -7.6237  -7.2483  -7.0140  -7.0122  -1.4354  -1.3153  -1.2591
    -1.2079  -0.8954  -0.8622   3.3232   3.4578   4.0431   4.4742   4.5822
     4.9534   4.9629   5.0181   5.3803   5.4212   5.5562   5.6617   6.0282
     6.0811   6.0933   6.2358   6.3489   6.4428   6.6934   6.8949   7.0048
     7.4394   7.4699   7.5284   7.5761   7.5838   7.7721   8.0686   8.4397
     8.4906   8.4982   8.7428   8.8727   9.1715   9.2952  11.4468  13.7917
    14.2032  14.5389  14.5640  14.6941  15.4879  15.6434  15.9832  16.2413

          k = 0.2500 0.0000 0.0000 ( 17474 PWs)   bands (ev):

   -31.8779 -16.1489 -16.1392 -12.2358 -12.1639 -11.8757  -8.6310  -8.1278
    -7.8117  -7.7171  -7.6477  -6.8778  -6.6031  -1.5212  -1.4050  -1.1248
    -1.0883  -1.0877  -1.0762   3.8629   3.9725   4.5308   4.6496   4.8235
     4.9260   5.3923   5.5464   5.6224   5.6943   6.0322   6.0460   6.1041
     6.2637   6.3402   6.3489   6.4022   6.5228   6.8227   6.9017   7.1450
     7.1684   7.1950   7.4893   7.5150   7.5881   7.9452   7.9863   8.0822
     8.2022   8.4357   8.6359   8.8755   8.9005   8.9859   9.0679  12.9158
    13.4436  14.2383  14.3609  14.6970  15.1509  15.7098  16.0738  16.0954

          k = 0.2500 0.0000 0.0819 ( 17457 PWs)   bands (ev):

   -31.8779 -16.1496 -16.1385 -12.2358 -12.1639 -11.8757  -8.6307  -8.1283
    -7.8084  -7.7228  -7.6451  -6.8785  -6.6025  -1.5129  -1.4140  -1.1283
    -1.0894  -1.0838  -1.0750   3.8647   3.9727   4.5301   4.6576   4.8240
     4.9284   5.3927   5.5399   5.6437   5.6942   5.9245   6.0496   6.0958
     6.2772   6.3316   6.3496   6.4445   6.5536   6.8698   6.8964   7.1469
     7.1847   7.1950   7.4549   7.4883   7.5799   7.9465   7.9740   8.1314
     8.1883   8.4804   8.6344   8.8126   8.9013   8.9459   9.1150  12.9253
    13.4911  14.2384  14.3457  14.5914  15.0206  15.8336  15.9174  16.2103

          k = 0.2500 0.0000-0.1638 ( 17456 PWs)   bands (ev):

   -31.8779 -16.1502 -16.1379 -12.2359 -12.1639 -11.8757  -8.6303  -8.1287
    -7.8047  -7.7287  -7.6428  -6.8791  -6.6020  -1.5029  -1.4248  -1.1313
    -1.0904  -1.0805  -1.0740   3.8665   3.9729   4.5293   4.6660   4.8245
     4.9306   5.3931   5.5354   5.6727   5.6941   5.8339   6.0546   6.0866
     6.2986   6.3147   6.3526   6.4342   6.5980   6.8648   6.9857   7.1078
     7.1950   7.2507   7.3508   7.4874   7.5743   7.9478   7.9694   8.1664
     8.1861   8.5356   8.6330   8.7406   8.9021   8.9183   9.1433  12.9349
    13.5487  14.2385  14.3066  14.5043  14.9349  15.7321  16.0932  16.1641

          k = 0.2500 0.2465 0.0000 ( 17466 PWs)   bands (ev):

   -31.8729 -16.1058 -16.0965 -12.1559 -12.1432 -12.1280  -8.2907  -8.0915
    -7.8472  -7.7263  -7.4780  -6.8935  -6.7279  -1.5327  -1.5046  -1.4154
    -1.3934  -1.0780  -1.0758   3.4605   3.8338   4.2335   4.2756   4.5998
     4.7457   4.8298   4.9149   4.9749   5.2261   5.5622   5.7312   5.7545
     6.1529   6.3017   6.3736   6.5293   6.8903   7.0662   7.1498   7.1988
     7.3877   7.4631   7.5547   7.7200   7.7566   7.9981   8.0892   8.4032
     8.6771   8.6818   8.9133   9.2939   9.5435   9.6859  10.5453  13.1482
    13.7300  13.8063  14.7813  15.3621  15.5286  15.7128  16.0200  16.1926

          k = 0.2500 0.2465 0.0819 ( 17461 PWs)   bands (ev):

   -31.8729 -16.1064 -16.0959 -12.1559 -12.1432 -12.1280  -8.2903  -8.0920
    -7.8473  -7.7262  -7.4773  -6.8946  -6.7274  -1.5296  -1.5075  -1.4118
    -1.3971  -1.0826  -1.0715   3.4639   3.8320   4.2336   4.2754   4.6006
     4.7400   4.8448   4.9087   4.9759   5.2232   5.6020   5.7254   5.7337
     5.9604   6.3504   6.5136   6.5572   6.9007   7.0581   7.0783   7.2785
     7.3906   7.4778   7.5580   7.7294   7.7601   7.9773   8.0156   8.4143
     8.6748   8.6782   8.8947   9.2849   9.5545   9.6806  10.5730  13.1783
    13.7138  13.7891  14.8403  15.2741  15.5079  15.7319  15.8740  16.0468

          k = 0.2500 0.2465-0.1638 ( 17462 PWs)   bands (ev):

   -31.8729 -16.1069 -16.0954 -12.1559 -12.1433 -12.1280  -8.2899  -8.0925
    -7.8474  -7.7261  -7.4767  -6.8956  -6.7269  -1.5261  -1.5106  -1.4065
    -1.4026  -1.0851  -1.0693   3.4674   3.8301   4.2338   4.2752   4.6013
     4.7349   4.8771   4.8815   4.9801   5.2217   5.6664   5.6982   5.7277
     5.8351   6.3458   6.5314   6.6845   6.9131   7.0269   7.0490   7.3371
     7.3724   7.5249   7.5616   7.7373   7.7988   7.8445   7.9998   8.4229
     8.6685   8.6791   8.8772   9.2766   9.5659   9.6746  10.5997  13.2127
    13.6851  13.7801  14.9175  15.2156  15.4296  15.7031  15.8644  15.9314

          k = 0.2500-0.4930 0.0000 ( 17468 PWs)   bands (ev):

   -31.8677 -16.0618 -16.0530 -12.3609 -12.1314 -12.0429  -8.2084  -7.8704
    -7.8265  -7.7713  -7.1404  -7.0060  -6.9142  -1.5686  -1.5316  -1.4679
    -1.4561  -1.3216  -1.3061   2.8564   3.2981   4.0780   4.1136   4.1387
     4.2559   4.3930   4.7929   4.9094   5.2356   5.4284   5.5383   5.6310
     6.1413   6.1899   6.2585   6.4860   7.0011   7.2261   7.5646   7.5668
     7.5897   7.6394   7.6668   7.9311   7.9980   8.1705   8.2343   8.3505
     8.8161   9.0175   9.0903   9.3261  10.0919  10.2517  11.2509  13.0407
    13.5098  14.0333  15.0755  15.7222  15.9486  15.9602  16.0409  16.3735

          k = 0.2500-0.4930 0.0819 ( 17468 PWs)   bands (ev):

   -31.8677 -16.0623 -16.0525 -12.3609 -12.1315 -12.0429  -8.2090  -7.8702
    -7.8266  -7.7696  -7.1436  -7.0060  -6.9121  -1.5675  -1.5327  -1.4758
    -1.4478  -1.3277  -1.3006   2.8619   3.2923   4.0816   4.1096   4.1317
     4.2555   4.3991   4.8025   4.9200   5.2359   5.4224   5.5339   5.6373
     5.9121   6.2616   6.2928   6.6924   6.9957   7.2270   7.4671   7.5651
     7.5941   7.6632   7.7123   7.9398   8.0076   8.1232   8.1630   8.3517
     8.8172   9.0154   9.0958   9.3184  10.0948  10.2435  11.3279  13.0146
    13.4943  14.0936  15.1449  15.5191  15.7445  15.8400  16.1101  16.3709

          k = 0.2500-0.4930-0.1638 ( 17460 PWs)   bands (ev):

   -31.8677 -16.0627 -16.0521 -12.3609 -12.1315 -12.0429  -8.2096  -7.8700
    -7.8267  -7.7679  -7.1468  -7.0060  -6.9101  -1.5663  -1.5340  -1.4817
    -1.4406  -1.3344  -1.2953   2.8674   3.2862   4.0868   4.1040   4.1250
     4.2552   4.4049   4.8123   4.9313   5.2362   5.4160   5.5296   5.6510
     5.7938   6.2647   6.3034   6.9340   6.9903   7.1813   7.3836   7.5655
     7.5990   7.6592   7.8010   7.9244   7.9901   8.0182   8.1545   8.3529
     8.8182   9.0134   9.1016   9.3104  10.0978  10.2361  11.4053  12.9845
    13.4802  14.1669  15.2438  15.2890  15.6937  15.7006  16.1445  16.3696

          k =-0.5000 0.0000 0.0000 ( 17502 PWs)   bands (ev):

   -31.8719 -16.0914 -16.0846 -12.4118 -12.1172 -11.8668  -8.2926  -8.2558
    -7.8674  -7.6819  -7.6632  -7.0154  -6.6074  -1.5730  -1.3696  -1.2035
    -1.1755  -0.9833  -0.9729   3.1825   3.3335   4.4420   4.5157   4.9343
     4.9661   4.9926   5.2911   5.6124   5.7810   5.8866   5.9321   5.9366
     6.0080   6.1741   6.3282   6.3848   6.6797   6.8608   6.9239   6.9497
     7.1653   7.5015   7.5645   7.6075   7.6667   7.7911   8.1297   8.2682
     8.3634   8.3768   8.5888   8.6338   8.7681   9.1754   9.2280  13.7223
    14.1551  14.3115  14.5947  15.7057  15.8262  15.8455  15.8769  16.3950

          k =-0.5000 0.0000 0.0819 ( 17486 PWs)   bands (ev):

   -31.8719 -16.0920 -16.0840 -12.4118 -12.1172 -11.8668  -8.2968  -8.2556
    -7.8400  -7.6905  -7.6821  -7.0104  -6.6083  -1.5622  -1.3813  -1.2043
    -1.1747  -0.9845  -0.9718   3.1829   3.3333   4.4479   4.5153   4.9347
     4.9783   4.9926   5.2942   5.6124   5.7406   5.8926   5.9133   5.9294
     6.0308   6.1660   6.3370   6.3771   6.6895   6.7692   6.9687   7.0652
     7.1651   7.4990   7.5393   7.5650   7.6639   7.7995   8.1293   8.2808
     8.3774   8.4276   8.6255   8.6332   8.7138   8.9919   9.3574  13.7858
    14.1551  14.2214  14.6054  15.5840  15.7071  15.8527  16.0771  16.3430

          k =-0.5000 0.0000-0.1638 ( 17500 PWs)   bands (ev):

   -31.8719 -16.0925 -16.0835 -12.4118 -12.1172 -11.8668  -8.3008  -8.2555
    -7.7947  -7.7358  -7.6822  -7.0054  -6.6092  -1.5500  -1.3946  -1.2050
    -1.1739  -0.9854  -0.9708   3.1834   3.3330   4.4539   4.5148   4.9352
     4.9914   4.9925   5.2978   5.6124   5.6994   5.8987   5.9028   5.9181
     6.0488   6.1678   6.3546   6.3605   6.6805   6.6998   7.1063   7.1096
     7.1650   7.4281   7.5052   7.5656   7.6601   7.8091   8.1290   8.2916
     8.3780   8.5538   8.5968   8.6327   8.7044   8.8421   9.4123  13.9002
    14.0786  14.1551  14.6161  15.5000  15.6520  15.8736  16.2247  16.2690

          k =-0.5000 0.2465 0.0000 ( 17444 PWs)   bands (ev):

   -31.8668 -16.0542 -16.0474 -12.3905 -12.1186 -12.0321  -8.1695  -7.9275
    -7.8699  -7.7052  -7.4838  -6.9111  -6.6796  -1.5843  -1.5363  -1.4667
    -1.4392  -1.4379  -1.3425   2.7772   3.1844   4.0982   4.1244   4.3331
     4.3803   4.7150   4.9131   4.9728   5.3142   5.3629   5.5388   5.7509
     6.2023   6.3360   6.3815   6.4268   6.9638   7.3607   7.4913   7.5384
     7.5568   7.7093   7.7381   7.7616   8.0766   8.1070   8.2751   8.4294
     8.5241   8.9100   8.9527   8.9800  10.0235  10.2316  10.5779  12.9839
    13.2694  14.3481  15.5338  15.5817  15.6910  15.9150  16.1924  16.2945

          k =-0.5000 0.2465 0.0819 ( 17444 PWs)   bands (ev):

   -31.8668 -16.0547 -16.0469 -12.3905 -12.1186 -12.0322  -8.1715  -7.9274
    -7.8700  -7.6930  -7.4963  -6.9084  -6.6800  -1.5764  -1.5369  -1.4720
    -1.4372  -1.4347  -1.3506   2.7796   3.1822   4.1084   4.1255   4.3305
     4.3689   4.7230   4.9196   4.9802   5.2975   5.3596   5.5613   5.7283
     6.0135   6.3334   6.4323   6.6620   6.9512   7.3071   7.5343   7.5374
     7.5741   7.7016   7.7126   7.7973   7.9588   8.0973   8.3111   8.4295
     8.5300   8.8771   8.9498   8.9757  10.0306  10.2050  10.6386  12.9858
    13.3150  14.2798  15.4169  15.5701  15.7136  15.8635  16.1848  16.4908

          k =-0.5000 0.2465-0.1638 ( 17444 PWs)   bands (ev):

   -31.8668 -16.0552 -16.0465 -12.3905 -12.1186 -12.0322  -8.1734  -7.9274
    -7.8701  -7.6792  -7.5104  -6.9057  -6.6804  -1.5675  -1.5375  -1.4780
    -1.4365  -1.4296  -1.3596   2.7821   3.1800   4.1194   4.1267   4.3279
     4.3569   4.7308   4.9250   4.9898   5.2830   5.3562   5.5838   5.6951
     5.9307   6.3307   6.4380   6.8905   6.9385   7.2136   7.5326   7.5927
     7.6095   7.6764   7.7241   7.8133   7.8187   8.0869   8.3334   8.4297
     8.5358   8.8449   8.9480   8.9714  10.0385  10.1836  10.6921  12.9879
    13.3676  14.2023  15.3635  15.5270  15.7841  15.7968  16.1074  16.5972

          k =-0.5000-0.4930 0.0000 ( 17484 PWs)   bands (ev):

   -31.8619 -16.0165 -16.0097 -12.3692 -12.3374 -11.9408  -8.0629  -8.0391
    -7.6304  -7.5556  -7.0388  -6.9972  -6.7988  -1.8725  -1.8629  -1.8530
    -1.6778  -1.5595  -1.3576   2.2067   2.7907   3.6476   3.7954   3.8585
     4.1647   4.2970   4.8992   4.9021   5.0053   5.2999   5.3092   5.6830
     6.1870   6.2333   6.2904   6.4659   7.4812   7.7706   7.8028   7.8803
     7.8974   7.9155   8.0933   8.1719   8.2476   8.2836   8.3166   8.6266
     8.9740   9.0215   9.3419   9.4876  10.9884  11.1882  11.2482  12.6072
    12.6935  14.5059  14.8490  15.2996  15.5824  15.6471  16.0319  16.4611

          k =-0.5000-0.4930 0.0819 ( 17492 PWs)   bands (ev):

   -31.8619 -16.0170 -16.0093 -12.3692 -12.3374 -11.9408  -8.0629  -8.0393
    -7.6304  -7.5550  -7.0387  -6.9976  -6.7989  -1.8716  -1.8633  -1.8539
    -1.6772  -1.5435  -1.3752   2.2111   2.7851   3.6648   3.7954   3.8584
     4.1650   4.2810   4.9032   4.9138   4.9799   5.3082   5.3405   5.6682
     5.9145   6.1878   6.4656   6.7529   7.4789   7.7364   7.7706   7.9079
     7.9132   7.9136   7.9385   8.1390   8.1604   8.3166   8.3576   8.6317
     8.9688   9.0261   9.3419   9.4863  11.1477  11.1887  11.2488  12.4934
    12.6965  14.5148  14.9870  15.1530  15.6187  15.9463  15.9800  16.0102

          k =-0.5000-0.4930-0.1638 ( 17504 PWs)   bands (ev):

   -31.8619 -16.0173 -16.0089 -12.3692 -12.3374 -11.9408  -8.0629  -8.0396
    -7.6304  -7.5544  -7.0386  -6.9980  -6.7991  -1.8705  -1.8637  -1.8550
    -1.6767  -1.5233  -1.3971   2.2156   2.7795   3.6831   3.7955   3.8583
     4.1652   4.2640   4.9043   4.9299   4.9587   5.3071   5.3799   5.6506
     5.7845   6.1886   6.4653   7.2894   7.3219   7.4767   7.7706   7.8731
     7.9109   7.9194   7.9851   8.0341   8.1480   8.3166   8.3899   8.6369
     8.9634   9.0308   9.3418   9.4851  11.1879  11.2468  11.3326  12.3529
    12.6995  14.5240  15.0707  15.3601  15.4107  15.6588  15.9844  16.3093

 ------ SPIN DOWN ----------


          k = 0.0000 0.0000 0.0000 ( 17411 PWs)   bands (ev):

   -31.8840 -16.2047 -16.1926 -12.3444 -11.8846 -11.8707  -8.9835  -8.0905
    -7.8980  -7.6305  -7.5735  -6.7392  -6.5851  -1.4133  -1.3874  -1.1875
    -1.1739  -1.0754  -1.0506   4.5463   4.5734   4.6250   4.8393   4.8431
     4.8919   5.7435   5.8009   5.8911   6.1143   6.1383   6.1458   6.1679
     6.2137   6.2161   6.3027   6.4927   6.7427   6.7778   7.0276   7.1418
     7.2266   7.3273   7.3364   7.3788   7.4082   7.5152   7.7563   7.8341
     7.8487   8.5735   8.6848   8.8871   8.9529   9.2281   9.2655  11.8403
    12.8803  13.5110  13.7508  14.3411  14.3950  14.9993  15.5477  15.6304

          k = 0.0000 0.0000 0.0819 ( 17429 PWs)   bands (ev):

   -31.8840 -16.2056 -16.1917 -12.3445 -11.8846 -11.8707  -8.9825  -8.0924
    -7.8980  -7.6307  -7.5727  -6.7396  -6.5843  -1.4336  -1.3673  -1.1886
    -1.1727  -1.0765  -1.0494   4.5453   4.5720   4.6299   4.8402   4.8439
     4.8990   5.7435   5.8009   5.8896   6.0386   6.1392   6.1471   6.1667
     6.2140   6.2216   6.2982   6.4923   6.7164   6.9216   7.0297   7.1537
     7.2266   7.2972   7.3164   7.3641   7.4065   7.5802   7.7578   7.8122
     7.8288   8.5723   8.6269   8.9022   8.9513   9.2293   9.2668  11.9103
    12.8876  13.5646  13.6430  14.2624  14.3411  14.9070  15.4941  15.9803

          k = 0.0000 0.0000-0.1638 ( 17408 PWs)   bands (ev):

   -31.8840 -16.2064 -16.1909 -12.3446 -11.8846 -11.8707  -8.9815  -8.0943
    -7.8980  -7.6309  -7.5719  -6.7400  -6.5834  -1.4455  -1.3554  -1.1896
    -1.1717  -1.0776  -1.0483   4.5442   4.5706   4.6346   4.8411   4.8447
     4.9067   5.7435   5.8009   5.8879   5.9749   6.1401   6.1484   6.1657
     6.2143   6.2278   6.2929   6.4919   6.7114   7.0206   7.0666   7.1845
     7.2266   7.2505   7.2754   7.3530   7.4049   7.6689   7.7436   7.7593
     7.8256   8.5711   8.5715   8.9130   8.9497   9.2306   9.2681  11.9889
    12.8854  13.4982  13.6915  14.1420  14.3411  14.7323  15.7418  16.0461

          k = 0.0000 0.2465 0.0000 ( 17440 PWs)   bands (ev):

   -31.8789 -16.1561 -16.1446 -12.2450 -12.1547 -11.8632  -8.6308  -8.1780
    -7.8443  -7.6625  -7.4415  -6.8820  -6.7752  -1.4374  -1.3728  -1.2164
    -1.1710  -0.9865  -0.9600   3.9409   4.0390   4.5785   4.6728   4.8004
     4.8329   5.0121   5.4031   5.5149   5.5234   5.6618   5.9117   6.1645
     6.1914   6.2187   6.3955   6.4432   6.5165   6.6379   6.9125   6.9418
     7.1052   7.2521   7.4003   7.7144   7.8276   7.9515   7.9984   8.0722
     8.2445   8.5420   8.7522   8.7580   8.9757   9.2370  10.5041  12.8819
    13.5232  14.2665  14.3161  14.7704  14.7827  15.6427  15.7450  15.8955

          k = 0.0000 0.2465 0.0819 ( 17424 PWs)   bands (ev):

   -31.8789 -16.1568 -16.1439 -12.2451 -12.1547 -11.8632  -8.6300  -8.1786
    -7.8435  -7.6649  -7.4404  -6.8826  -6.7743  -1.4490  -1.3610  -1.2136
    -1.1738  -0.9877  -0.9588   3.9473   4.0354   4.5768   4.6735   4.7836
     4.8340   5.0175   5.4037   5.5075   5.5973   5.6622   5.8715   6.0354
     6.1737   6.2407   6.4398   6.4525   6.5436   6.6380   6.8795   7.0425
     7.1151   7.2801   7.3820   7.7429   7.7626   7.9053   7.9667   8.1472
     8.2469   8.5624   8.7016   8.7570   8.9764   9.2211  10.5233  12.8790
    13.5563  14.2664  14.2939  14.6817  14.9485  15.3397  15.7366  15.8788

          k = 0.0000 0.2465-0.1638 ( 17402 PWs)   bands (ev):

   -31.8789 -16.1574 -16.1432 -12.2452 -12.1547 -11.8632  -8.6292  -8.1792
    -7.8426  -7.6673  -7.4394  -6.8831  -6.7734  -1.4581  -1.3517  -1.2102
    -1.1772  -0.9888  -0.9577   3.9544   4.0311   4.5751   4.6735   4.7690
     4.8350   5.0235   5.4042   5.5027   5.6627   5.7449   5.7525   5.9481
     6.1636   6.2553   6.4361   6.4625   6.5736   6.6381   6.8684   7.1041
     7.1256   7.3661   7.3832   7.6042   7.8334   7.8778   7.9098   8.2125
     8.2446   8.5991   8.6294   8.7560   8.9772   9.2053  10.5417  12.8759
    13.5937  14.2517  14.2663  14.7244  15.0304  15.1324  15.6549  15.8451

          k = 0.0000-0.4930 0.0000 ( 17434 PWs)   bands (ev):

   -31.8739 -16.1062 -16.0956 -12.3847 -12.1372 -11.8556  -8.3451  -8.2237
    -7.9003  -7.6201  -7.2376  -7.0218  -7.0147  -1.4110  -1.3403  -1.2616
    -1.2054  -0.8931  -0.8645   3.3133   3.4661   4.0427   4.5410   4.5863
     4.9429   4.9537   5.0134   5.0957   5.5537   5.6590   5.7016   6.0473
     6.0605   6.1799   6.2036   6.3489   6.4595   6.7187   6.8435   6.9090
     7.3136   7.4686   7.5258   7.5306   7.6513   7.9003   8.0686   8.2782
     8.3663   8.6764   8.7433   9.0225   9.1749   9.2998  11.3870  13.6091
    14.2031  14.4718  14.6689  15.2251  15.3313  15.5280  15.8314  16.4181

          k = 0.0000-0.4930 0.0819 ( 17442 PWs)   bands (ev):

   -31.8739 -16.1068 -16.0951 -12.3847 -12.1373 -11.8556  -8.3461  -8.2228
    -7.8974  -7.6219  -7.2432  -7.0180  -7.0138  -1.4248  -1.3262  -1.2604
    -1.2066  -0.8943  -0.8633   3.3181   3.4621   4.0428   4.5047   4.5842
     4.9525   4.9535   5.0157   5.1960   5.5550   5.5842   5.6828   6.0371
     6.0713   6.1306   6.2199   6.3488   6.4515   6.7032   6.9019   6.9356
     7.3612   7.4692   7.5269   7.5437   7.6261   7.8471   8.0686   8.3470
     8.3993   8.6254   8.7430   8.9515   9.1731   9.2969  11.4172  13.6884
    14.2032  14.4919  14.6289  14.9359  15.4007  15.5680  16.0749  16.1426

          k = 0.0000-0.4930-0.1638 ( 17416 PWs)   bands (ev):

   -31.8739 -16.1073 -16.0945 -12.3847 -12.1373 -11.8556  -8.3471  -8.2219
    -7.8946  -7.6237  -7.2487  -7.0144  -7.0128  -1.4354  -1.3153  -1.2591
    -1.2080  -0.8954  -0.8622   3.3232   3.4577   4.0429   4.4741   4.5822
     4.9534   4.9628   5.0181   5.3800   5.4212   5.5562   5.6617   6.0281
     6.0811   6.0932   6.2358   6.3488   6.4427   6.6934   6.8949   7.0047
     7.4394   7.4699   7.5281   7.5756   7.5838   7.7719   8.0686   8.4396
     8.4905   8.4978   8.7426   8.8726   9.1712   9.2941  11.4466  13.7917
    14.2032  14.5389  14.5640  14.6941  15.4879  15.6434  15.9832  16.2412

          k = 0.2500 0.0000 0.0000 ( 17474 PWs)   bands (ev):

   -31.8779 -16.1489 -16.1392 -12.2358 -12.1639 -11.8757  -8.6311  -8.1278
    -7.8117  -7.7171  -7.6482  -6.8783  -6.6037  -1.5212  -1.4050  -1.1248
    -1.0883  -1.0877  -1.0762   3.8628   3.9724   4.5308   4.6496   4.8235
     4.9259   5.3923   5.5464   5.6224   5.6943   6.0320   6.0457   6.1039
     6.2637   6.3401   6.3487   6.4022   6.5227   6.8227   6.9016   7.1450
     7.1683   7.1949   7.4893   7.5149   7.5878   7.9452   7.9863   8.0820
     8.2021   8.4353   8.6353   8.8751   8.8999   8.9855   9.0678  12.9158
    13.4435  14.2383  14.3609  14.6970  15.1508  15.7097  16.0737  16.0953

          k = 0.2500 0.0000 0.0819 ( 17457 PWs)   bands (ev):

   -31.8779 -16.1496 -16.1385 -12.2358 -12.1639 -11.8757  -8.6307  -8.1283
    -7.8084  -7.7229  -7.6456  -6.8789  -6.6031  -1.5129  -1.4140  -1.1283
    -1.0894  -1.0839  -1.0750   3.8646   3.9727   4.5301   4.6576   4.8240
     4.9283   5.3927   5.5399   5.6437   5.6942   5.9244   6.0493   6.0956
     6.2771   6.3315   6.3494   6.4445   6.5536   6.8697   6.8963   7.1469
     7.1846   7.1949   7.4546   7.4883   7.5798   7.9465   7.9739   8.1312
     8.1881   8.4801   8.6338   8.8122   8.9008   8.9455   9.1149  12.9253
    13.4911  14.2384  14.3457  14.5914  15.0206  15.8336  15.9173  16.2102

          k = 0.2500 0.0000-0.1638 ( 17456 PWs)   bands (ev):

   -31.8779 -16.1502 -16.1379 -12.2359 -12.1639 -11.8757  -8.6303  -8.1288
    -7.8047  -7.7288  -7.6432  -6.8796  -6.6025  -1.5029  -1.4248  -1.1313
    -1.0904  -1.0805  -1.0740   3.8665   3.9729   4.5293   4.6660   4.8245
     4.9304   5.3931   5.5354   5.6726   5.6941   5.8337   6.0543   6.0864
     6.2985   6.3146   6.3524   6.4342   6.5980   6.8648   6.9856   7.1077
     7.1950   7.2507   7.3505   7.4874   7.5742   7.9477   7.9693   8.1662
     8.1859   8.5355   8.6323   8.7400   8.9016   8.9179   9.1432  12.9349
    13.5486  14.2385  14.3066  14.5042  14.9348  15.7320  16.0932  16.1641

          k = 0.2500 0.2465 0.0000 ( 17466 PWs)   bands (ev):

   -31.8729 -16.1058 -16.0965 -12.1559 -12.1432 -12.1280  -8.2907  -8.0915
    -7.8473  -7.7263  -7.4786  -6.8940  -6.7285  -1.5327  -1.5046  -1.4154
    -1.3934  -1.0780  -1.0758   3.4605   3.8338   4.2335   4.2756   4.5998
     4.7457   4.8297   4.9148   4.9747   5.2261   5.5620   5.7311   5.7543
     6.1529   6.3016   6.3735   6.5292   6.8903   7.0661   7.1497   7.1987
     7.3876   7.4631   7.5544   7.7200   7.7566   7.9981   8.0890   8.4027
     8.6768   8.6814   8.9126   9.2933   9.5435   9.6858  10.5451  13.1482
    13.7299  13.8063  14.7813  15.3621  15.5286  15.7128  16.0200  16.1926

          k = 0.2500 0.2465 0.0819 ( 17461 PWs)   bands (ev):

   -31.8729 -16.1064 -16.0959 -12.1559 -12.1432 -12.1280  -8.2903  -8.0920
    -7.8473  -7.7262  -7.4779  -6.8950  -6.7280  -1.5296  -1.5075  -1.4118
    -1.3971  -1.0826  -1.0715   3.4639   3.8320   4.2336   4.2753   4.6006
     4.7400   4.8447   4.9086   4.9758   5.2232   5.6019   5.7253   5.7336
     5.9604   6.3503   6.5135   6.5570   6.9007   7.0581   7.0782   7.2785
     7.3906   7.4777   7.5577   7.7293   7.7600   7.9772   8.0155   8.4138
     8.6745   8.6779   8.8939   9.2844   9.5544   9.6806  10.5728  13.1783
    13.7138  13.7891  14.8403  15.2741  15.5079  15.7319  15.8739  16.0468

          k = 0.2500 0.2465-0.1638 ( 17462 PWs)   bands (ev):

   -31.8729 -16.1069 -16.0954 -12.1559 -12.1433 -12.1280  -8.2900  -8.0925
    -7.8474  -7.7261  -7.4772  -6.8961  -6.7275  -1.5261  -1.5106  -1.4065
    -1.4026  -1.0851  -1.0693   3.4674   3.8301   4.2337   4.2751   4.6013
     4.7349   4.8771   4.8813   4.9800   5.2216   5.6664   5.6979   5.7277
     5.8350   6.3457   6.5313   6.6844   6.9130   7.0268   7.0489   7.3371
     7.3723   7.5249   7.5613   7.7372   7.7986   7.8445   7.9998   8.4224
     8.6681   8.6788   8.8765   9.2760   9.5658   9.6745  10.5995  13.2127
    13.6850  13.7801  14.9175  15.2156  15.4296  15.7031  15.8644  15.9314

          k = 0.2500-0.4930 0.0000 ( 17468 PWs)   bands (ev):

   -31.8677 -16.0618 -16.0530 -12.3609 -12.1314 -12.0429  -8.2084  -7.8705
    -7.8265  -7.7713  -7.1409  -7.0066  -6.9146  -1.5686  -1.5316  -1.4679
    -1.4561  -1.3216  -1.3062   2.8564   3.2981   4.0779   4.1134   4.1386
     4.2558   4.3930   4.7929   4.9093   5.2355   5.4284   5.5379   5.6309
     6.1411   6.1899   6.2584   6.4859   7.0011   7.2260   7.5646   7.5668
     7.5896   7.6394   7.6668   7.9308   7.9979   8.1700   8.2342   8.3504
     8.8156   9.0173   9.0901   9.3251  10.0918  10.2517  11.2508  13.0407
    13.5098  14.0332  15.0755  15.7222  15.9485  15.9602  16.0409  16.3735

          k = 0.2500-0.4930 0.0819 ( 17468 PWs)   bands (ev):

   -31.8677 -16.0623 -16.0525 -12.3609 -12.1314 -12.0429  -8.2090  -7.8703
    -7.8266  -7.7696  -7.1441  -7.0066  -6.9126  -1.5675  -1.5328  -1.4758
    -1.4478  -1.3277  -1.3006   2.8618   3.2922   4.0816   4.1094   4.1317
     4.2555   4.3990   4.8025   4.9199   5.2359   5.4224   5.5335   5.6373
     5.9120   6.2615   6.2927   6.6923   6.9957   7.2270   7.4671   7.5650
     7.5941   7.6632   7.7122   7.9396   8.0075   8.1231   8.1624   8.3517
     8.8167   9.0151   9.0956   9.3173  10.0947  10.2435  11.3277  13.0146
    13.4942  14.0936  15.1449  15.5191  15.7445  15.8400  16.1101  16.3708

          k = 0.2500-0.4930-0.1638 ( 17460 PWs)   bands (ev):

   -31.8677 -16.0627 -16.0521 -12.3609 -12.1315 -12.0429  -8.2096  -7.8701
    -7.8268  -7.7679  -7.1472  -7.0067  -6.9106  -1.5663  -1.5340  -1.4817
    -1.4406  -1.3344  -1.2953   2.8674   3.2862   4.0867   4.1039   4.1250
     4.2552   4.4049   4.8123   4.9312   5.2362   5.4160   5.5292   5.6509
     5.7938   6.2646   6.3033   6.9338   6.9903   7.1813   7.3836   7.5654
     7.5989   7.6591   7.8009   7.9243   7.9899   8.0181   8.1538   8.3529
     8.8178   9.0131   9.1014   9.3093  10.0977  10.2361  11.4051  12.9845
    13.4801  14.1669  15.2438  15.2889  15.6937  15.7006  16.1445  16.3696

          k =-0.5000 0.0000 0.0000 ( 17502 PWs)   bands (ev):

   -31.8719 -16.0914 -16.0846 -12.4118 -12.1172 -11.8668  -8.2926  -8.2558
    -7.8677  -7.6819  -7.6635  -7.0158  -6.6080  -1.5730  -1.3696  -1.2035
    -1.1755  -0.9833  -0.9729   3.1824   3.3334   4.4420   4.5157   4.9343
     4.9659   4.9926   5.2911   5.6124   5.7810   5.8863   5.9319   5.9363
     6.0080   6.1739   6.3281   6.3847   6.6797   6.8608   6.9237   6.9497
     7.1652   7.5015   7.5645   7.6073   7.6666   7.7908   8.1297   8.2681
     8.3634   8.3762   8.5881   8.6333   8.7679   9.1751   9.2279  13.7223
    14.1551  14.3115  14.5947  15.7057  15.8261  15.8455  15.8768  16.3949

          k =-0.5000 0.0000 0.0819 ( 17486 PWs)   bands (ev):

   -31.8719 -16.0920 -16.0840 -12.4118 -12.1172 -11.8668  -8.2968  -8.2556
    -7.8402  -7.6909  -7.6821  -7.0108  -6.6089  -1.5623  -1.3813  -1.2043
    -1.1747  -0.9845  -0.9718   3.1829   3.3332   4.4479   4.5153   4.9347
     4.9782   4.9926   5.2942   5.6124   5.7405   5.8923   5.9131   5.9292
     6.0308   6.1659   6.3369   6.3770   6.6895   6.7691   6.9687   7.0651
     7.1651   7.4989   7.5391   7.5650   7.6638   7.7992   8.1293   8.2807
     8.3768   8.4275   8.6250   8.6328   8.7136   8.9916   9.3572  13.7858
    14.1551  14.2213  14.6054  15.5839  15.7071  15.8526  16.0770  16.3430

          k =-0.5000 0.0000-0.1638 ( 17500 PWs)   bands (ev):

   -31.8719 -16.0925 -16.0835 -12.4118 -12.1172 -11.8668  -8.3009  -8.2555
    -7.7947  -7.7363  -7.6822  -7.0059  -6.6098  -1.5500  -1.3946  -1.2051
    -1.1739  -0.9854  -0.9708   3.1833   3.3330   4.4539   4.5148   4.9352
     4.9913   4.9925   5.2978   5.6124   5.6994   5.8986   5.9025   5.9178
     6.0487   6.1677   6.3546   6.3604   6.6804   6.6998   7.1062   7.1094
     7.1649   7.4278   7.5052   7.5656   7.6601   7.8088   8.1290   8.2914
     8.3774   8.5538   8.5966   8.6322   8.7043   8.8413   9.4122  13.9002
    14.0785  14.1551  14.6161  15.5000  15.6520  15.8735  16.2246  16.2690

          k =-0.5000 0.2465 0.0000 ( 17444 PWs)   bands (ev):

   -31.8668 -16.0542 -16.0474 -12.3905 -12.1186 -12.0321  -8.1695  -7.9275
    -7.8700  -7.7053  -7.4842  -6.9116  -6.6801  -1.5843  -1.5363  -1.4667
    -1.4392  -1.4380  -1.3425   2.7772   3.1844   4.0982   4.1243   4.3331
     4.3803   4.7149   4.9130   4.9726   5.3142   5.3629   5.5386   5.7508
     6.2023   6.3358   6.3813   6.4266   6.9637   7.3606   7.4912   7.5384
     7.5567   7.7091   7.7380   7.7616   8.0763   8.1069   8.2746   8.4294
     8.5239   8.9091   8.9521   8.9797  10.0234  10.2315  10.5777  12.9839
    13.2694  14.3481  15.5338  15.5817  15.6910  15.9150  16.1924  16.2944

          k =-0.5000 0.2465 0.0819 ( 17444 PWs)   bands (ev):

   -31.8668 -16.0547 -16.0469 -12.3905 -12.1186 -12.0322  -8.1715  -7.9275
    -7.8700  -7.6931  -7.4968  -6.9089  -6.6806  -1.5764  -1.5369  -1.4720
    -1.4373  -1.4347  -1.3506   2.7796   3.1822   4.1084   4.1255   4.3304
     4.3689   4.7229   4.9195   4.9800   5.2975   5.3596   5.5611   5.7282
     6.0134   6.3332   6.4321   6.6619   6.9512   7.3070   7.5343   7.5373
     7.5740   7.7015   7.7124   7.7972   7.9586   8.0973   8.3107   8.4295
     8.5298   8.8762   8.9492   8.9755  10.0306  10.2049  10.6384  12.9858
    13.3150  14.2798  15.4169  15.5701  15.7136  15.8635  16.1847  16.4908

          k =-0.5000 0.2465-0.1638 ( 17444 PWs)   bands (ev):

   -31.8668 -16.0552 -16.0465 -12.3905 -12.1186 -12.0322  -8.1735  -7.9274
    -7.8701  -7.6792  -7.5109  -6.9062  -6.6810  -1.5675  -1.5375  -1.4780
    -1.4366  -1.4296  -1.3596   2.7820   3.1800   4.1194   4.1267   4.3278
     4.3569   4.7308   4.9249   4.9896   5.2830   5.3562   5.5836   5.6951
     5.9305   6.3305   6.4379   6.8904   6.9385   7.2135   7.5326   7.5925
     7.6095   7.6763   7.7239   7.8132   7.8187   8.0869   8.3329   8.4297
     8.5356   8.8439   8.9475   8.9712  10.0385  10.1835  10.6919  12.9878
    13.3675  14.2023  15.3635  15.5270  15.7841  15.7968  16.1073  16.5971

          k =-0.5000-0.4930 0.0000 ( 17484 PWs)   bands (ev):

   -31.8619 -16.0165 -16.0097 -12.3692 -12.3374 -11.9408  -8.0629  -8.0391
    -7.6304  -7.5556  -7.0393  -6.9979  -6.7993  -1.8725  -1.8630  -1.8530
    -1.6778  -1.5595  -1.3576   2.2067   2.7907   3.6475   3.7953   3.8584
     4.1645   4.2970   4.8991   4.9021   5.0053   5.2998   5.3092   5.6827
     6.1868   6.2333   6.2903   6.4657   7.4812   7.7706   7.8028   7.8802
     7.8974   7.9155   8.0932   8.1719   8.2474   8.2836   8.3166   8.6259
     8.9734   9.0212   9.3416   9.4867  10.9882  11.1881  11.2482  12.6071
    12.6935  14.5059  14.8490  15.2996  15.5823  15.6471  16.0318  16.4611

          k =-0.5000-0.4930 0.0819 ( 17492 PWs)   bands (ev):

   -31.8619 -16.0170 -16.0093 -12.3692 -12.3374 -11.9408  -8.0629  -8.0393
    -7.6304  -7.5550  -7.0392  -6.9983  -6.7994  -1.8716  -1.8633  -1.8539
    -1.6772  -1.5435  -1.3752   2.2111   2.7851   3.6648   3.7954   3.8583
     4.1648   4.2810   4.9032   4.9137   4.9799   5.3081   5.3405   5.6679
     5.9145   6.1876   6.4654   6.7529   7.4789   7.7364   7.7706   7.9079
     7.9131   7.9135   7.9384   8.1389   8.1604   8.3166   8.3576   8.6311
     8.9681   9.0259   9.3416   9.4854  11.1475  11.1886  11.2487  12.4933
    12.6965  14.5148  14.9870  15.1530  15.6187  15.9462  15.9800  16.0102

          k =-0.5000-0.4930-0.1638 ( 17504 PWs)   bands (ev):

   -31.8619 -16.0173 -16.0089 -12.3692 -12.3374 -11.9408  -8.0629  -8.0396
    -7.6304  -7.5544  -7.0390  -6.9987  -6.7995  -1.8705  -1.8637  -1.8550
    -1.6767  -1.5233  -1.3971   2.2156   2.7795   3.6830   3.7954   3.8582
     4.1651   4.2639   4.9043   4.9297   4.9586   5.3071   5.3799   5.6503
     5.7844   6.1884   6.4651   7.2894   7.3217   7.4767   7.7706   7.8731
     7.9108   7.9193   7.9851   8.0339   8.1479   8.3166   8.3898   8.6363
     8.9627   9.0306   9.3415   9.4842  11.1878  11.2467  11.3324  12.3529
    12.6995  14.5240  15.0707  15.3601  15.4107  15.6587  15.9844  16.3092

     the Fermi energy is     9.4313 ev
     (compare with:     9.4099 eV, computed in scf)

     Writing all to output data dir ./YBCO7/YBCO7.save/
 
     init_run     :      3.91s CPU      4.17s WALL (       1 calls)
     electrons    :    257.71s CPU    260.27s WALL (       1 calls)

     Called by init_run:
     wfcinit      :      1.69s CPU      1.72s WALL (       1 calls)
     potinit      :      0.51s CPU      0.52s WALL (       1 calls)
     hinit0       :      0.76s CPU      0.78s WALL (       1 calls)

     Called by electrons:
     c_bands      :    257.68s CPU    260.24s WALL (       1 calls)
     v_of_rho     :      0.12s CPU      0.13s WALL (       1 calls)
     newd         :      0.89s CPU      1.08s WALL (       1 calls)
     PAW_pot      :      0.37s CPU      0.37s WALL (       1 calls)

     Called by c_bands:
     init_us_2    :      0.24s CPU      0.29s WALL (     108 calls)
     init_us_2:cp :      0.23s CPU      0.29s WALL (     108 calls)
     cegterg      :    250.84s CPU    253.14s WALL (     279 calls)

     Called by *egterg:
     cdiaghg      :     14.42s CPU     14.48s WALL (    5235 calls)
     h_psi        :    140.75s CPU    142.64s WALL (    5514 calls)
     s_psi        :     20.02s CPU     20.10s WALL (    5568 calls)
     g_psi        :      1.02s CPU      1.02s WALL (    5181 calls)

     Called by h_psi:
     h_psi:calbec :     19.35s CPU     19.57s WALL (    5514 calls)
     vloc_psi     :     95.40s CPU     96.93s WALL (    5514 calls)
     add_vuspsi   :     19.19s CPU     19.27s WALL (    5514 calls)
     vhpsi        :      5.34s CPU      5.38s WALL (    5514 calls)

     General routines
     calbec       :     21.76s CPU     22.01s WALL (   11082 calls)
     fft          :      0.06s CPU      0.06s WALL (      23 calls)
     ffts         :      0.00s CPU      0.00s WALL (       2 calls)
     fftw         :     72.33s CPU     73.48s WALL (  284810 calls)
     interpolate  :      0.01s CPU      0.01s WALL (       2 calls)
     davcio       :      0.19s CPU      0.30s WALL (     216 calls)
 
     Parallel routines

     Hubbard U routines
     vhpsi        :      5.34s CPU      5.38s WALL (    5514 calls)
 
     PWSCF        :   4m22.03s CPU   4m25.34s WALL

 
   This run was terminated on:  22:38:37  23Dec2023            

=------------------------------------------------------------------------------=
   JOB DONE.
=------------------------------------------------------------------------------=
