
     Program PWSCF v.7.2 starts on 16Dec2023 at 10: 2:25 

     This program is part of the open-source Quantum ESPRESSO suite
     for quantum simulation of materials; please cite
         "P. Giannozzi et al., J. Phys.:Condens. Matter 21 395502 (2009);
         "P. Giannozzi et al., J. Phys.:Condens. Matter 29 465901 (2017);
         "P. Giannozzi et al., J. Chem. Phys. 152 154105 (2020);
          URL http://www.quantum-espresso.org", 
     in publications or presentations arising from this work. More details at
     http://www.quantum-espresso.org/quote

     Parallel version (MPI), running on     4 processors

     MPI processes distributed on     1 nodes
     3951 MiB available memory on the printing compute node when the environment starts
 
     Waiting for input...
     Reading input from standard input

     Current dimensions of program PWSCF are:
     Max number of different atomic species (ntypx) = 10
     Max number of k-points (npk) =  40000
     Max angular momentum in pseudopotentials (lmaxx) =  4

     File ./YBCO.vc-relax/YBCO.vc-relax.update deleted, as requested

     File ./YBCO.vc-relax/YBCO.vc-relax.bfgs deleted, as requested
 
     R & G space division:  proc/nbgrp/npool/nimage =       4
     Subspace diagonalization in iterative solution of the eigenvalue problem:
     a serial algorithm will be used

 
     Parallelization info
     --------------------
     sticks:   dense  smooth     PW     G-vecs:    dense   smooth      PW
     Min         756     377    107                95412    33713    5119
     Max         757     378    109                95423    33722    5122
     Sum        3027    1511    433               381679   134875   20483
 
     Using Slab Decomposition
 


     bravais-lattice index     =            8
     lattice parameter (alat)  =       7.2193  a.u.
     unit-cell volume          =    1170.3381 (a.u.)^3
     number of atoms/cell      =           13
     number of atomic types    =            6
     number of electrons       =       130.00
     number of Kohn-Sham states=           78
     kinetic-energy cutoff     =      90.0000  Ry
     charge density cutoff     =     720.0000  Ry
     scf convergence threshold =      1.0E-08
     mixing beta               =       0.1000
     number of iterations used =            8  plain     mixing
     energy convergence thresh.=      1.0E-04
     force convergence thresh. =      1.0E-03
     press convergence thresh. =      5.0E-01
     Exchange-correlation= SLA  PW   PBE  PBE
                           (   1   4   3   4   0   0   0)
     nstep                     =           50

     Hubbard projectors: ortho-atomic
     Hubbard parameters of DFT+U (Dudarev formulation) in eV:
     U(Cu1-3d) =  2.5000
     U(Cu2-3d) =  2.5000

     Internal variables: lda_plus_u = T, lda_plus_u_kind = 0

     celldm(1)=   7.219321  celldm(2)=   1.017061  celldm(3)=   3.058265
     celldm(4)=   0.000000  celldm(5)=   0.000000  celldm(6)=   0.000000

     crystal axes: (cart. coord. in units of alat)
               a(1) = (   1.000000   0.000000   0.000000 )  
               a(2) = (   0.000000   1.017061   0.000000 )  
               a(3) = (   0.000000   0.000000   3.058265 )  

     reciprocal axes: (cart. coord. in units 2 pi/alat)
               b(1) = (  1.000000  0.000000  0.000000 )  
               b(2) = (  0.000000  0.983225  0.000000 )  
               b(3) = (  0.000000  0.000000  0.326983 )  


     PseudoPot. # 1 for Y  read from file:
     ~/q-e/pseudo/all_pbe_UPF_v1.5/y_pbe_v1.4.uspp.F.UPF
     MD5 check sum: Not computed, couldn't open file
     Pseudo is Ultrasoft + core correction, Zval = 11.0
     Generated by new atomic code, or converted to UPF format
     Using radial grid of  885 points,  6 beta functions with: 
                l(1) =   0
                l(2) =   0
                l(3) =   1
                l(4) =   1
                l(5) =   2
                l(6) =   2
     Q(r) pseudized with  8 coefficients,  rinner =    1.200   1.200   1.200
                                                       1.200   1.200

     PseudoPot. # 2 for Ba read from file:
     ~/q-e/pseudo/all_pbe_UPF_v1.5/ba_pbe_v1.uspp.F.UPF
     MD5 check sum: Not computed, couldn't open file
     Pseudo is Ultrasoft + core correction, Zval = 10.0
     Generated by new atomic code, or converted to UPF format
     Using radial grid of  907 points,  7 beta functions with: 
                l(1) =   0
                l(2) =   0
                l(3) =   1
                l(4) =   1
                l(5) =   2
                l(6) =   2
                l(7) =   3
     Q(r) pseudized with  6 coefficients,  rinner =    1.700   1.700   1.700
                                                       1.700   1.700   1.700
                                                       1.700

     PseudoPot. # 3 for Cu read from file:
     ~/q-e/pseudo/all_pbe_UPF_v1.5/cu_pbe_v1.2.uspp.F.UPF
     MD5 check sum: Not computed, couldn't open file
     Pseudo is Ultrasoft + core correction, Zval = 19.0
     Generated by new atomic code, or converted to UPF format
     Using radial grid of  867 points,  6 beta functions with: 
                l(1) =   0
                l(2) =   0
                l(3) =   1
                l(4) =   1
                l(5) =   2
                l(6) =   2
     Q(r) pseudized with  8 coefficients,  rinner =    1.150   1.150   1.150
                                                       1.150   1.150

     PseudoPot. # 4 for Cu read from file:
     ~/q-e/pseudo/all_pbe_UPF_v1.5/cu_pbe_v1.2.uspp.F.UPF
     MD5 check sum: Not computed, couldn't open file
     Pseudo is Ultrasoft + core correction, Zval = 19.0
     Generated by new atomic code, or converted to UPF format
     Using radial grid of  867 points,  6 beta functions with: 
                l(1) =   0
                l(2) =   0
                l(3) =   1
                l(4) =   1
                l(5) =   2
                l(6) =   2
     Q(r) pseudized with  8 coefficients,  rinner =    1.150   1.150   1.150
                                                       1.150   1.150

     PseudoPot. # 5 for Cu read from file:
     ~/q-e/pseudo/all_pbe_UPF_v1.5/cu_pbe_v1.2.uspp.F.UPF
     MD5 check sum: Not computed, couldn't open file
     Pseudo is Ultrasoft + core correction, Zval = 19.0
     Generated by new atomic code, or converted to UPF format
     Using radial grid of  867 points,  6 beta functions with: 
                l(1) =   0
                l(2) =   0
                l(3) =   1
                l(4) =   1
                l(5) =   2
                l(6) =   2
     Q(r) pseudized with  8 coefficients,  rinner =    1.150   1.150   1.150
                                                       1.150   1.150

     PseudoPot. # 6 for O  read from file:
     ~/q-e/pseudo/all_pbe_UPF_v1.5/o_pbe_v1.2.uspp.F.UPF
     MD5 check sum: Not computed, couldn't open file
     Pseudo is Ultrasoft + core correction, Zval =  6.0
     Generated by new atomic code, or converted to UPF format
     Using radial grid of  737 points,  5 beta functions with: 
                l(1) =   0
                l(2) =   0
                l(3) =   1
                l(4) =   1
                l(5) =   2
     Q(r) pseudized with  8 coefficients,  rinner =    0.900   0.900   0.900
                                                       0.900   0.900

     atomic species   valence    mass     pseudopotential
     Y                11.00    88.90584     Y ( 1.00)
     Ba               10.00   137.32700     Ba( 1.00)
     Cu               19.00    63.54600     Cu( 1.00)
     Cu1              19.00    63.54600     Cu( 1.00)
     Cu2              19.00    63.54600     Cu( 1.00)
     O                 6.00    15.99900     O ( 1.00)

     Starting magnetic structure 
     atomic species   magnetization
     Y               0.000
     Ba              0.000
     Cu              0.000
     Cu1             0.100
     Cu2            -0.100
     O               0.000

      4 Sym. Ops. (no inversion) found


                                    s                        frac. trans.

      isym =  1     identity                                     

 cryst.   s( 1) = (     1          0          0      )
                  (     0          1          0      )
                  (     0          0          1      )

 cart.    s( 1) = (  1.0000000  0.0000000  0.0000000 )
                  (  0.0000000  1.0000000  0.0000000 )
                  (  0.0000000  0.0000000  1.0000000 )


      isym =  2     180 deg rotation - cart. axis [0,0,1]        

 cryst.   s( 2) = (    -1          0          0      )
                  (     0         -1          0      )
                  (     0          0          1      )

 cart.    s( 2) = ( -1.0000000  0.0000000  0.0000000 )
                  (  0.0000000 -1.0000000  0.0000000 )
                  (  0.0000000  0.0000000  1.0000000 )


      isym =  3     inv. 180 deg rotation - cart. axis [0,1,0]   

 cryst.   s( 3) = (     1          0          0      )
                  (     0         -1          0      )
                  (     0          0          1      )

 cart.    s( 3) = (  1.0000000  0.0000000  0.0000000 )
                  (  0.0000000 -1.0000000  0.0000000 )
                  (  0.0000000  0.0000000  1.0000000 )


      isym =  4     inv. 180 deg rotation - cart. axis [1,0,0]   

 cryst.   s( 4) = (    -1          0          0      )
                  (     0          1          0      )
                  (     0          0          1      )

 cart.    s( 4) = ( -1.0000000  0.0000000  0.0000000 )
                  (  0.0000000  1.0000000  0.0000000 )
                  (  0.0000000  0.0000000  1.0000000 )


     point group C_2v (mm2) 
     there are  4 classes
     the character table:

       E     C2    s_v   s_v' 
A_1    1.00  1.00  1.00  1.00
A_2    1.00  1.00 -1.00 -1.00
B_1    1.00 -1.00  1.00 -1.00
B_2    1.00 -1.00 -1.00  1.00

     the symmetry operations in each class and the name of the first element:

     E        1
          identity                                               
     C2       2
          180 deg rotation - cart. axis [0,0,1]                  
     s_v      4
          inv. 180 deg rotation - cart. axis [1,0,0]             
     s_v'     3
          inv. 180 deg rotation - cart. axis [0,1,0]             

   Cartesian axes

     site n.     atom                  positions (alat units)
         1        Y      tau(   1) = (   0.5000000   0.5085307   1.5291325  )
         2        Ba     tau(   2) = (   0.5000000   0.5085307   0.5625067  )
         3        Ba     tau(   3) = (   0.5000000   0.5085307   2.4957584  )
         4        Cu     tau(   4) = (   0.0000000   0.0000000   0.0000000  )
         5        Cu1    tau(   5) = (   0.0000000   0.0000000   1.0857147  )
         6        Cu2    tau(   6) = (   0.0000000   0.0000000   1.9725504  )
         7        O      tau(   7) = (   0.5000000   0.0000000   1.1566053  )
         8        O      tau(   8) = (   0.5000000   0.0000000   1.9016598  )
         9        O      tau(   9) = (   0.0000000   0.5085307   1.1527518  )
        10        O      tau(  10) = (   0.0000000   0.5085307   1.9055132  )
        11        O      tau(  11) = (   0.0000000   0.5085307   0.0000000  )
        12        O      tau(  12) = (   0.0000000   0.0000000   0.4844292  )
        13        O      tau(  13) = (   0.0000000   0.0000000   2.5738359  )

   Crystallographic axes

     site n.     atom                  positions (cryst. coord.)
         1        Y      tau(   1) = (  0.5000000  0.5000000  0.5000000  )
         2        Ba     tau(   2) = (  0.5000000  0.5000000  0.1839300  )
         3        Ba     tau(   3) = (  0.5000000  0.5000000  0.8160700  )
         4        Cu     tau(   4) = (  0.0000000  0.0000000  0.0000000  )
         5        Cu1    tau(   5) = (  0.0000000  0.0000000  0.3550100  )
         6        Cu2    tau(   6) = (  0.0000000  0.0000000  0.6449900  )
         7        O      tau(   7) = (  0.5000000  0.0000000  0.3781900  )
         8        O      tau(   8) = (  0.5000000  0.0000000  0.6218100  )
         9        O      tau(   9) = (  0.0000000  0.5000000  0.3769300  )
        10        O      tau(  10) = (  0.0000000  0.5000000  0.6230700  )
        11        O      tau(  11) = (  0.0000000  0.5000000  0.0000000  )
        12        O      tau(  12) = (  0.0000000  0.0000000  0.1584000  )
        13        O      tau(  13) = (  0.0000000  0.0000000  0.8416000  )

     number of k points=     8  Methfessel-Paxton smearing, width (Ry)=  0.0200
                       cart. coord. in units 2pi/alat
        k(    1) = (   0.0000000   0.0000000   0.0000000), wk =   0.1250000
        k(    2) = (   0.0000000   0.0000000  -0.1634914), wk =   0.1250000
        k(    3) = (   0.0000000  -0.4916124   0.0000000), wk =   0.1250000
        k(    4) = (   0.0000000  -0.4916124  -0.1634914), wk =   0.1250000
        k(    5) = (  -0.5000000   0.0000000   0.0000000), wk =   0.1250000
        k(    6) = (  -0.5000000   0.0000000  -0.1634914), wk =   0.1250000
        k(    7) = (  -0.5000000  -0.4916124   0.0000000), wk =   0.1250000
        k(    8) = (  -0.5000000  -0.4916124  -0.1634914), wk =   0.1250000

                       cryst. coord.
        k(    1) = (   0.0000000   0.0000000   0.0000000), wk =   0.1250000
        k(    2) = (   0.0000000   0.0000000  -0.5000000), wk =   0.1250000
        k(    3) = (   0.0000000  -0.5000000   0.0000000), wk =   0.1250000
        k(    4) = (   0.0000000  -0.5000000  -0.5000000), wk =   0.1250000
        k(    5) = (  -0.5000000   0.0000000   0.0000000), wk =   0.1250000
        k(    6) = (  -0.5000000   0.0000000  -0.5000000), wk =   0.1250000
        k(    7) = (  -0.5000000  -0.5000000   0.0000000), wk =   0.1250000
        k(    8) = (  -0.5000000  -0.5000000  -0.5000000), wk =   0.1250000

     Dense  grid:   381679 G-vectors     FFT dimensions: (  64,  64, 192)

     Smooth grid:   134875 G-vectors     FFT dimensions: (  45,  45, 135)

     Dynamical RAM for                 wfc:       5.02 MB

     Dynamical RAM for     wfc (w. buffer):      85.34 MB

     Dynamical RAM for             U proj.:       0.64 MB

     Dynamical RAM for  U proj. (w. buff.):      10.94 MB

     Dynamical RAM for           str. fact:       8.74 MB

     Dynamical RAM for           local pot:       0.00 MB

     Dynamical RAM for          nlocal pot:      13.71 MB

     Dynamical RAM for                qrad:      48.22 MB

     Dynamical RAM for          rho,v,vnew:      17.74 MB

     Dynamical RAM for               rhoin:       5.91 MB

     Dynamical RAM for            rho*nmix:      46.59 MB

     Dynamical RAM for           G-vectors:       5.72 MB

     Dynamical RAM for          h,s,v(r/c):       1.11 MB

     Dynamical RAM for          <psi|beta>:       0.25 MB

     Dynamical RAM for                 psi:      10.04 MB

     Dynamical RAM for                hpsi:      10.04 MB

     Dynamical RAM for                spsi:      10.04 MB

     Dynamical RAM for      wfcinit/wfcrot:      13.90 MB

     Dynamical RAM for           addusdens:     524.17 MB

     Dynamical RAM for          addusforce:     541.75 MB

     Dynamical RAM for         addusstress:     554.02 MB

     Estimated static dynamical RAM per process >     215.50 MB

     Estimated max dynamical RAM per process >     816.12 MB

     Estimated total dynamical RAM >       3.19 GB
     Generating pointlists ...
     new r_m :   0.2582 (alat units)  1.8637 (a.u.) for type    1
     new r_m :   0.2959 (alat units)  2.1365 (a.u.) for type    2
     new r_m :   0.1998 (alat units)  1.4426 (a.u.) for type    3
     new r_m :   0.2083 (alat units)  1.5039 (a.u.) for type    4
     new r_m :   0.2083 (alat units)  1.5039 (a.u.) for type    5
     new r_m :   0.1998 (alat units)  1.4426 (a.u.) for type    6

     Initial potential from superposition of free atoms

     starting charge     126.9655, renormalised to     130.0000

     negative rho (up, down):  9.664E-02 9.664E-02

     HUBBARD ENERGY =    0.2205  (Ry)

     STARTING HUBBARD OCCUPATIONS:

     =================== HUBBARD OCCUPATIONS ===================
     ------------------------ ATOM    5 ------------------------
     Tr[ns(  5)] (up, down, total) =   5.00000  3.00000  8.00000
     Atomic magnetic moment for atom   5 =   2.00000
     SPIN  1
     eigenvalues:
       1.000  1.000  1.000  1.000  1.000
     eigenvectors (columns):
       1.000  0.000  0.000  0.000  0.000
       0.000  1.000  0.000  0.000  0.000
       0.000  0.000  1.000  0.000  0.000
       0.000  0.000  0.000  1.000  0.000
       0.000  0.000  0.000  0.000  1.000
     occupation matrix ns (before diag.):
       1.000  0.000  0.000  0.000  0.000
       0.000  1.000  0.000  0.000  0.000
       0.000  0.000  1.000  0.000  0.000
       0.000  0.000  0.000  1.000  0.000
       0.000  0.000  0.000  0.000  1.000
     SPIN  2
     eigenvalues:
       0.600  0.600  0.600  0.600  0.600
     eigenvectors (columns):
       1.000  0.000  0.000  0.000  0.000
       0.000  1.000  0.000  0.000  0.000
       0.000  0.000  1.000  0.000  0.000
       0.000  0.000  0.000  1.000  0.000
       0.000  0.000  0.000  0.000  1.000
     occupation matrix ns (before diag.):
       0.600  0.000  0.000  0.000  0.000
       0.000  0.600  0.000  0.000  0.000
       0.000  0.000  0.600  0.000  0.000
       0.000  0.000  0.000  0.600  0.000
       0.000  0.000  0.000  0.000  0.600
     ------------------------ ATOM    6 ------------------------
     Tr[ns(  6)] (up, down, total) =   3.00000  5.00000  8.00000
     Atomic magnetic moment for atom   6 =  -2.00000
     SPIN  1
     eigenvalues:
       0.600  0.600  0.600  0.600  0.600
     eigenvectors (columns):
       1.000  0.000  0.000  0.000  0.000
       0.000  1.000  0.000  0.000  0.000
       0.000  0.000  1.000  0.000  0.000
       0.000  0.000  0.000  1.000  0.000
       0.000  0.000  0.000  0.000  1.000
     occupation matrix ns (before diag.):
       0.600  0.000  0.000  0.000  0.000
       0.000  0.600  0.000  0.000  0.000
       0.000  0.000  0.600  0.000  0.000
       0.000  0.000  0.000  0.600  0.000
       0.000  0.000  0.000  0.000  0.600
     SPIN  2
     eigenvalues:
       1.000  1.000  1.000  1.000  1.000
     eigenvectors (columns):
       1.000  0.000  0.000  0.000  0.000
       0.000  1.000  0.000  0.000  0.000
       0.000  0.000  1.000  0.000  0.000
       0.000  0.000  0.000  1.000  0.000
       0.000  0.000  0.000  0.000  1.000
     occupation matrix ns (before diag.):
       1.000  0.000  0.000  0.000  0.000
       0.000  1.000  0.000  0.000  0.000
       0.000  0.000  1.000  0.000  0.000
       0.000  0.000  0.000  1.000  0.000
       0.000  0.000  0.000  0.000  1.000

     Number of occupied Hubbard levels =   16.0000

     Atomic wfc used for Hubbard projectors are orthogonalized

     Starting wfcs are  106 randomized atomic wfcs

     total cpu time spent up to now is        6.0 secs

     Self-consistent Calculation

     iteration #  1     ecut=    90.00 Ry     beta= 0.10
     Davidson diagonalization with overlap

---- Real-time Memory Report at c_bands before calling an iterative solver
           737 MiB given to the printing process from OS
             0 MiB allocation reported by mallinfo(arena+hblkhd)
          2887 MiB available memory on the node where the printing process lives
------------------
     ethr =  1.00E-02,  avg # of iterations =  2.0

     =================== HUBBARD OCCUPATIONS ===================
     ------------------------ ATOM    5 ------------------------
     Tr[ns(  5)] (up, down, total) =   4.81025  3.85485  8.66509
     Atomic magnetic moment for atom   5 =   0.95540
     SPIN  1
     eigenvalues:
       0.878  0.968  0.987  0.987  0.990
     eigenvectors (columns):
      -0.019  1.000 -0.000 -0.000  0.000
      -0.000  0.000  0.000  1.000  0.000
      -0.000  0.000  1.000 -0.000  0.000
       1.000  0.019  0.000  0.000 -0.000
       0.000 -0.000 -0.000 -0.000  1.000
     occupation matrix ns (before diag.):
       0.968 -0.000 -0.000  0.002  0.000
      -0.000  0.987 -0.000  0.000  0.000
      -0.000 -0.000  0.987  0.000  0.000
       0.002  0.000  0.000  0.878 -0.000
       0.000  0.000  0.000 -0.000  0.990
     SPIN  2
     eigenvalues:
       0.288  0.767  0.913  0.928  0.959
     eigenvectors (columns):
      -0.031 -0.000  1.000 -0.000  0.000
      -0.000 -0.000  0.000  1.000  0.000
      -0.000 -0.000  0.000  0.000 -1.000
       1.000 -0.000  0.031  0.000 -0.000
       0.000  1.000  0.000  0.000 -0.000
     occupation matrix ns (before diag.):
       0.912 -0.000 -0.000  0.019  0.000
      -0.000  0.928 -0.000  0.000  0.000
      -0.000 -0.000  0.959  0.000  0.000
       0.019  0.000  0.000  0.289 -0.000
       0.000  0.000  0.000 -0.000  0.767
     ------------------------ ATOM    6 ------------------------
     Tr[ns(  6)] (up, down, total) =   3.85478  4.81035  8.66513
     Atomic magnetic moment for atom   6 =  -0.95556
     SPIN  1
     eigenvalues:
       0.288  0.766  0.913  0.928  0.959
     eigenvectors (columns):
      -0.031 -0.000  1.000 -0.000  0.000
      -0.000 -0.000  0.000  1.000  0.000
      -0.000 -0.000  0.000  0.000 -1.000
       1.000 -0.000  0.031  0.000 -0.000
       0.000  1.000  0.000  0.000 -0.000
     occupation matrix ns (before diag.):
       0.912 -0.000 -0.000  0.019  0.000
      -0.000  0.928 -0.000  0.000  0.000
      -0.000 -0.000  0.959  0.000  0.000
       0.019  0.000  0.000  0.289 -0.000
       0.000  0.000  0.000 -0.000  0.766
     SPIN  2
     eigenvalues:
       0.878  0.968  0.987  0.987  0.990
     eigenvectors (columns):
      -0.019  1.000 -0.000 -0.000  0.000
      -0.000  0.000  0.000  1.000  0.000
      -0.000  0.000  1.000 -0.000  0.000
       1.000  0.019  0.000  0.000 -0.000
       0.000 -0.000 -0.000 -0.000  1.000
     occupation matrix ns (before diag.):
       0.968 -0.000 -0.000  0.002  0.000
      -0.000  0.987 -0.000  0.000  0.000
      -0.000 -0.000  0.987  0.000  0.000
       0.002  0.000  0.000  0.878 -0.000
       0.000  0.000  0.000 -0.000  0.990

     Number of occupied Hubbard levels =   17.3302

     negative rho (up, down):  9.559E-02 9.559E-02

     HUBBARD ENERGY =    0.1365  (Ry)

     total cpu time spent up to now is       15.1 secs

     total energy              =   -1671.40084810 Ry
     estimated scf accuracy    <       2.88138342 Ry

     total magnetization       =    -0.00 Bohr mag/cell
     absolute magnetization    =     2.20 Bohr mag/cell

     iteration #  2     ecut=    90.00 Ry     beta= 0.10
     Davidson diagonalization with overlap

---- Real-time Memory Report at c_bands before calling an iterative solver
           887 MiB given to the printing process from OS
             0 MiB allocation reported by mallinfo(arena+hblkhd)
          2805 MiB available memory on the node where the printing process lives
------------------
     ethr =  2.22E-03,  avg # of iterations =  1.0

     =================== HUBBARD OCCUPATIONS ===================
     ------------------------ ATOM    5 ------------------------
     Tr[ns(  5)] (up, down, total) =   4.83688  4.43650  9.27338
     Atomic magnetic moment for atom   5 =   0.40039
     SPIN  1
     eigenvalues:
       0.898  0.973  0.988  0.988  0.991
     eigenvectors (columns):
      -0.019  1.000 -0.000 -0.000  0.000
      -0.000  0.000  0.000  1.000  0.000
      -0.000  0.000  1.000 -0.000  0.000
       1.000  0.019  0.000  0.000 -0.000
       0.000 -0.000 -0.000 -0.000  1.000
     occupation matrix ns (before diag.):
       0.973 -0.000 -0.000  0.001  0.000
      -0.000  0.988 -0.000  0.000  0.000
      -0.000 -0.000  0.988  0.000  0.000
       0.001  0.000  0.000  0.898 -0.000
       0.000  0.000  0.000 -0.000  0.991
     SPIN  2
     eigenvalues:
       0.545  0.950  0.980  0.980  0.983
     eigenvectors (columns):
      -0.029  1.000 -0.000 -0.000  0.000
      -0.000  0.000  1.000 -0.000  0.000
      -0.000  0.000  0.000  1.000  0.000
       1.000  0.029  0.000  0.000 -0.000
       0.000 -0.000 -0.000 -0.000  1.000
     occupation matrix ns (before diag.):
       0.949 -0.000 -0.000  0.012  0.000
      -0.000  0.980 -0.000  0.000  0.000
      -0.000 -0.000  0.980  0.000  0.000
       0.012  0.000  0.000  0.545 -0.000
       0.000  0.000  0.000 -0.000  0.983
     ------------------------ ATOM    6 ------------------------
     Tr[ns(  6)] (up, down, total) =   4.43570  4.83684  9.27254
     Atomic magnetic moment for atom   6 =  -0.40115
     SPIN  1
     eigenvalues:
       0.544  0.950  0.979  0.980  0.983
     eigenvectors (columns):
      -0.029  1.000 -0.000 -0.000  0.000
      -0.000  0.000  1.000 -0.000  0.000
      -0.000  0.000  0.000  1.000  0.000
       1.000  0.029  0.000  0.000 -0.000
       0.000 -0.000 -0.000 -0.000  1.000
     occupation matrix ns (before diag.):
       0.949 -0.000 -0.000  0.012  0.000
      -0.000  0.979 -0.000  0.000  0.000
      -0.000 -0.000  0.980  0.000  0.000
       0.012  0.000  0.000  0.544 -0.000
       0.000  0.000  0.000 -0.000  0.983
     SPIN  2
     eigenvalues:
       0.898  0.973  0.988  0.988  0.991
     eigenvectors (columns):
      -0.019  1.000 -0.000 -0.000  0.000
      -0.000  0.000  0.000  1.000  0.000
      -0.000  0.000  1.000 -0.000  0.000
       1.000  0.019  0.000  0.000 -0.000
       0.000 -0.000 -0.000 -0.000  1.000
     occupation matrix ns (before diag.):
       0.973 -0.000 -0.000  0.001  0.000
      -0.000  0.988 -0.000  0.000  0.000
      -0.000 -0.000  0.988  0.000  0.000
       0.001  0.000  0.000  0.898 -0.000
       0.000  0.000  0.000 -0.000  0.991

     Number of occupied Hubbard levels =   18.5459

     negative rho (up, down):  9.496E-02 9.496E-02

     HUBBARD ENERGY =    0.1351  (Ry)

     total cpu time spent up to now is       23.6 secs

     total energy              =   -1671.39694039 Ry
     estimated scf accuracy    <       2.20357508 Ry

     total magnetization       =    -0.00 Bohr mag/cell
     absolute magnetization    =     1.07 Bohr mag/cell

     iteration #  3     ecut=    90.00 Ry     beta= 0.10
     Davidson diagonalization with overlap

---- Real-time Memory Report at c_bands before calling an iterative solver
           908 MiB given to the printing process from OS
             0 MiB allocation reported by mallinfo(arena+hblkhd)
          2796 MiB available memory on the node where the printing process lives
------------------
     ethr =  1.70E-03,  avg # of iterations =  1.0

     =================== HUBBARD OCCUPATIONS ===================
     ------------------------ ATOM    5 ------------------------
     Tr[ns(  5)] (up, down, total) =   4.83870  4.14196  8.98067
     Atomic magnetic moment for atom   5 =   0.69674
     SPIN  1
     eigenvalues:
       0.902  0.970  0.988  0.988  0.991
     eigenvectors (columns):
      -0.034  0.999 -0.000 -0.000  0.000
      -0.000  0.000  0.000  1.000  0.000
      -0.000  0.000  1.000 -0.000  0.000
       0.999  0.034  0.000  0.000 -0.000
       0.000 -0.000 -0.000 -0.000  1.000
     occupation matrix ns (before diag.):
       0.970 -0.000 -0.000  0.002  0.000
      -0.000  0.988 -0.000  0.000  0.000
      -0.000 -0.000  0.988  0.000  0.000
       0.002  0.000  0.000  0.903 -0.000
       0.000  0.000  0.000 -0.000  0.991
     SPIN  2
     eigenvalues:
       0.257  0.931  0.980  0.981  0.993
     eigenvectors (columns):
      -0.025  1.000 -0.000 -0.000  0.000
      -0.000  0.000  0.000  1.000  0.000
      -0.000  0.000  1.000 -0.000  0.000
       1.000  0.025  0.000  0.000 -0.000
       0.000 -0.000 -0.000 -0.000  1.000
     occupation matrix ns (before diag.):
       0.930 -0.000 -0.000  0.017  0.000
      -0.000  0.981 -0.000  0.000  0.000
      -0.000 -0.000  0.980  0.000  0.000
       0.017  0.000  0.000  0.257 -0.000
       0.000  0.000  0.000 -0.000  0.993
     ------------------------ ATOM    6 ------------------------
     Tr[ns(  6)] (up, down, total) =   4.14216  4.83876  8.98092
     Atomic magnetic moment for atom   6 =  -0.69659
     SPIN  1
     eigenvalues:
       0.257  0.931  0.980  0.981  0.994
     eigenvectors (columns):
      -0.025  1.000 -0.000 -0.000  0.000
      -0.000  0.000  0.000  1.000  0.000
      -0.000  0.000  1.000 -0.000  0.000
       1.000  0.025  0.000  0.000 -0.000
       0.000 -0.000 -0.000 -0.000  1.000
     occupation matrix ns (before diag.):
       0.931 -0.000 -0.000  0.017  0.000
      -0.000  0.981 -0.000  0.000  0.000
      -0.000 -0.000  0.980  0.000  0.000
       0.017  0.000  0.000  0.257 -0.000
       0.000  0.000  0.000 -0.000  0.994
     SPIN  2
     eigenvalues:
       0.902  0.970  0.988  0.988  0.991
     eigenvectors (columns):
      -0.034  0.999 -0.000 -0.000  0.000
      -0.000  0.000  0.000  1.000  0.000
      -0.000  0.000  1.000 -0.000  0.000
       0.999  0.034  0.000  0.000 -0.000
       0.000 -0.000 -0.000 -0.000  1.000
     occupation matrix ns (before diag.):
       0.970 -0.000 -0.000  0.002  0.000
      -0.000  0.988 -0.000  0.000  0.000
      -0.000 -0.000  0.988  0.000  0.000
       0.002  0.000  0.000  0.903 -0.000
       0.000  0.000  0.000 -0.000  0.991

     Number of occupied Hubbard levels =   17.9616

     negative rho (up, down):  9.265E-02 9.265E-02

     HUBBARD ENERGY =    0.1252  (Ry)

     total cpu time spent up to now is       33.0 secs

     total energy              =   -1671.27929157 Ry
     estimated scf accuracy    <       0.83851020 Ry

     total magnetization       =     0.00 Bohr mag/cell
     absolute magnetization    =     1.70 Bohr mag/cell

     iteration #  4     ecut=    90.00 Ry     beta= 0.10
     Davidson diagonalization with overlap

---- Real-time Memory Report at c_bands before calling an iterative solver
           910 MiB given to the printing process from OS
             0 MiB allocation reported by mallinfo(arena+hblkhd)
          2785 MiB available memory on the node where the printing process lives
------------------
     ethr =  6.45E-04,  avg # of iterations =  2.0

     =================== HUBBARD OCCUPATIONS ===================
     ------------------------ ATOM    5 ------------------------
     Tr[ns(  5)] (up, down, total) =   4.87168  4.53769  9.40936
     Atomic magnetic moment for atom   5 =   0.33399
     SPIN  1
     eigenvalues:
       0.925  0.975  0.990  0.990  0.992
     eigenvectors (columns):
      -0.023  1.000 -0.000 -0.000  0.000
      -0.000  0.000  0.000  1.000  0.000
      -0.000  0.000  1.000 -0.000  0.000
       1.000  0.023  0.000  0.000 -0.000
       0.000 -0.000 -0.000 -0.000  1.000
     occupation matrix ns (before diag.):
       0.975 -0.000 -0.000  0.001  0.000
      -0.000  0.990 -0.000  0.000  0.000
      -0.000 -0.000  0.990  0.000  0.000
       0.001  0.000  0.000  0.925 -0.000
       0.000  0.000  0.000 -0.000  0.992
     SPIN  2
     eigenvalues:
       0.624  0.960  0.983  0.983  0.987
     eigenvectors (columns):
      -0.057  0.998 -0.000 -0.000  0.000
      -0.000  0.000  0.000  1.000  0.000
      -0.000  0.000  1.000 -0.000  0.000
       0.998  0.057  0.000  0.000 -0.000
       0.000 -0.000 -0.000 -0.000  1.000
     occupation matrix ns (before diag.):
       0.959 -0.000 -0.000  0.019  0.000
      -0.000  0.983 -0.000  0.000  0.000
      -0.000 -0.000  0.983  0.000  0.000
       0.019  0.000  0.000  0.625 -0.000
       0.000  0.000  0.000 -0.000  0.987
     ------------------------ ATOM    6 ------------------------
     Tr[ns(  6)] (up, down, total) =   4.53761  4.87167  9.40928
     Atomic magnetic moment for atom   6 =  -0.33405
     SPIN  1
     eigenvalues:
       0.624  0.960  0.983  0.983  0.987
     eigenvectors (columns):
      -0.057  0.998 -0.000 -0.000  0.000
      -0.000  0.000  0.000  1.000  0.000
      -0.000  0.000  1.000 -0.000  0.000
       0.998  0.057  0.000  0.000 -0.000
       0.000 -0.000 -0.000 -0.000  1.000
     occupation matrix ns (before diag.):
       0.959 -0.000 -0.000  0.019  0.000
      -0.000  0.983 -0.000  0.000  0.000
      -0.000 -0.000  0.983  0.000  0.000
       0.019  0.000  0.000  0.625 -0.000
       0.000  0.000  0.000 -0.000  0.987
     SPIN  2
     eigenvalues:
       0.925  0.975  0.990  0.990  0.992
     eigenvectors (columns):
      -0.023  1.000 -0.000 -0.000  0.000
      -0.000  0.000  0.000  1.000  0.000
      -0.000  0.000  1.000 -0.000  0.000
       1.000  0.023  0.000  0.000 -0.000
       0.000 -0.000 -0.000 -0.000  1.000
     occupation matrix ns (before diag.):
       0.975 -0.000 -0.000  0.001  0.000
      -0.000  0.990 -0.000  0.000  0.000
      -0.000 -0.000  0.990  0.000  0.000
       0.001  0.000  0.000  0.925 -0.000
       0.000  0.000  0.000 -0.000  0.992

     Number of occupied Hubbard levels =   18.8186

     negative rho (up, down):  9.270E-02 9.270E-02

     HUBBARD ENERGY =    0.1256  (Ry)

     total cpu time spent up to now is       43.4 secs

     total energy              =   -1671.39780138 Ry
     estimated scf accuracy    <       0.75394388 Ry

     total magnetization       =    -0.00 Bohr mag/cell
     absolute magnetization    =     0.94 Bohr mag/cell

     iteration #  5     ecut=    90.00 Ry     beta= 0.10
     Davidson diagonalization with overlap

---- Real-time Memory Report at c_bands before calling an iterative solver
           912 MiB given to the printing process from OS
             0 MiB allocation reported by mallinfo(arena+hblkhd)
          2767 MiB available memory on the node where the printing process lives
------------------
     ethr =  5.80E-04,  avg # of iterations =  1.0

     =================== HUBBARD OCCUPATIONS ===================
     ------------------------ ATOM    5 ------------------------
     Tr[ns(  5)] (up, down, total) =   4.86586  4.46146  9.32732
     Atomic magnetic moment for atom   5 =   0.40440
     SPIN  1
     eigenvalues:
       0.921  0.974  0.989  0.990  0.992
     eigenvectors (columns):
      -0.022  1.000 -0.000 -0.000  0.000
      -0.000  0.000  0.000  1.000  0.000
      -0.000  0.000  1.000 -0.000  0.000
       1.000  0.022  0.000  0.000 -0.000
       0.000 -0.000 -0.000 -0.000  1.000
     occupation matrix ns (before diag.):
       0.974 -0.000 -0.000  0.001  0.000
      -0.000  0.990 -0.000  0.000  0.000
      -0.000 -0.000  0.989  0.000  0.000
       0.001  0.000  0.000  0.921 -0.000
       0.000  0.000  0.000 -0.000  0.992
     SPIN  2
     eigenvalues:
       0.549  0.960  0.983  0.983  0.987
     eigenvectors (columns):
      -0.049  0.999 -0.000 -0.000  0.000
      -0.000  0.000  0.000  1.000  0.000
      -0.000  0.000  1.000 -0.000  0.000
       0.999  0.049  0.000  0.000 -0.000
       0.000 -0.000 -0.000 -0.000  1.000
     occupation matrix ns (before diag.):
       0.959 -0.000 -0.000  0.020  0.000
      -0.000  0.983 -0.000  0.000  0.000
      -0.000 -0.000  0.983  0.000  0.000
       0.020  0.000  0.000  0.550 -0.000
       0.000  0.000  0.000 -0.000  0.987
     ------------------------ ATOM    6 ------------------------
     Tr[ns(  6)] (up, down, total) =   4.46142  4.86588  9.32730
     Atomic magnetic moment for atom   6 =  -0.40446
     SPIN  1
     eigenvalues:
       0.549  0.960  0.983  0.983  0.987
     eigenvectors (columns):
      -0.049  0.999 -0.000 -0.000  0.000
      -0.000  0.000  0.000  1.000  0.000
      -0.000  0.000  1.000 -0.000  0.000
       0.999  0.049  0.000  0.000 -0.000
       0.000 -0.000 -0.000 -0.000  1.000
     occupation matrix ns (before diag.):
       0.959 -0.000 -0.000  0.020  0.000
      -0.000  0.983 -0.000  0.000  0.000
      -0.000 -0.000  0.983  0.000  0.000
       0.020  0.000  0.000  0.550 -0.000
       0.000  0.000  0.000 -0.000  0.987
     SPIN  2
     eigenvalues:
       0.921  0.974  0.989  0.990  0.992
     eigenvectors (columns):
      -0.022  1.000 -0.000 -0.000  0.000
      -0.000  0.000  0.000  1.000  0.000
      -0.000  0.000  1.000 -0.000  0.000
       1.000  0.022  0.000  0.000 -0.000
       0.000 -0.000 -0.000 -0.000  1.000
     occupation matrix ns (before diag.):
       0.974 -0.000 -0.000  0.001  0.000
      -0.000  0.990 -0.000  0.000  0.000
      -0.000 -0.000  0.989  0.000  0.000
       0.001  0.000  0.000  0.921 -0.000
       0.000  0.000  0.000 -0.000  0.992

     Number of occupied Hubbard levels =   18.6546

     negative rho (up, down):  9.126E-02 9.127E-02

     HUBBARD ENERGY =    0.1192  (Ry)

     total cpu time spent up to now is       52.8 secs

     total energy              =   -1671.32808001 Ry
     estimated scf accuracy    <       0.45122480 Ry

     total magnetization       =    -0.00 Bohr mag/cell
     absolute magnetization    =     1.07 Bohr mag/cell

     iteration #  6     ecut=    90.00 Ry     beta= 0.10
     Davidson diagonalization with overlap

---- Real-time Memory Report at c_bands before calling an iterative solver
           914 MiB given to the printing process from OS
             0 MiB allocation reported by mallinfo(arena+hblkhd)
          2760 MiB available memory on the node where the printing process lives
------------------
     ethr =  3.47E-04,  avg # of iterations =  2.0

     =================== HUBBARD OCCUPATIONS ===================
     ------------------------ ATOM    5 ------------------------
     Tr[ns(  5)] (up, down, total) =   4.84183  4.38449  9.22632
     Atomic magnetic moment for atom   5 =   0.45735
     SPIN  1
     eigenvalues:
       0.909  0.966  0.988  0.988  0.991
     eigenvectors (columns):
      -0.032  0.999 -0.000 -0.000  0.000
      -0.000  0.000  0.000  1.000  0.000
      -0.000  0.000  1.000 -0.000  0.000
       0.999  0.032  0.000  0.000 -0.000
       0.000 -0.000 -0.000 -0.000  1.000
     occupation matrix ns (before diag.):
       0.966 -0.000 -0.000  0.002  0.000
      -0.000  0.988 -0.000  0.000  0.000
      -0.000 -0.000  0.988  0.000  0.000
       0.002  0.000  0.000  0.909 -0.000
       0.000  0.000  0.000 -0.000  0.991
     SPIN  2
     eigenvalues:
       0.489  0.946  0.982  0.982  0.985
     eigenvectors (columns):
      -0.027  1.000 -0.000 -0.000  0.000
      -0.000  0.000  0.000  1.000  0.000
      -0.000  0.000  1.000 -0.000  0.000
       1.000  0.027  0.000  0.000 -0.000
       0.000 -0.000 -0.000 -0.000  1.000
     occupation matrix ns (before diag.):
       0.946 -0.000 -0.000  0.012  0.000
      -0.000  0.982 -0.000  0.000  0.000
      -0.000 -0.000  0.982  0.000  0.000
       0.012  0.000  0.000  0.489 -0.000
       0.000  0.000  0.000 -0.000  0.985
     ------------------------ ATOM    6 ------------------------
     Tr[ns(  6)] (up, down, total) =   4.38382  4.84183  9.22566
     Atomic magnetic moment for atom   6 =  -0.45801
     SPIN  1
     eigenvalues:
       0.488  0.946  0.982  0.982  0.985
     eigenvectors (columns):
      -0.027  1.000 -0.000 -0.000  0.000
      -0.000  0.000  0.000  1.000  0.000
      -0.000  0.000  1.000 -0.000  0.000
       1.000  0.027  0.000  0.000 -0.000
       0.000 -0.000 -0.000 -0.000  1.000
     occupation matrix ns (before diag.):
       0.946 -0.000 -0.000  0.012  0.000
      -0.000  0.982 -0.000  0.000  0.000
      -0.000 -0.000  0.982  0.000  0.000
       0.012  0.000  0.000  0.488 -0.000
       0.000  0.000  0.000 -0.000  0.985
     SPIN  2
     eigenvalues:
       0.909  0.966  0.988  0.988  0.991
     eigenvectors (columns):
      -0.032  0.999 -0.000 -0.000  0.000
      -0.000  0.000  0.000  1.000  0.000
      -0.000  0.000  1.000 -0.000  0.000
       0.999  0.032  0.000  0.000 -0.000
       0.000 -0.000 -0.000 -0.000  1.000
     occupation matrix ns (before diag.):
       0.966 -0.000 -0.000  0.002  0.000
      -0.000  0.988 -0.000  0.000  0.000
      -0.000 -0.000  0.988  0.000  0.000
       0.002  0.000  0.000  0.909 -0.000
       0.000  0.000  0.000 -0.000  0.991

     Number of occupied Hubbard levels =   18.4520

     negative rho (up, down):  8.951E-02 8.951E-02

     HUBBARD ENERGY =    0.1105  (Ry)

     total cpu time spent up to now is       63.0 secs

     total energy              =   -1671.38289134 Ry
     estimated scf accuracy    <       0.55854761 Ry

     total magnetization       =    -0.00 Bohr mag/cell
     absolute magnetization    =     1.15 Bohr mag/cell

     iteration #  7     ecut=    90.00 Ry     beta= 0.10
     Davidson diagonalization with overlap

---- Real-time Memory Report at c_bands before calling an iterative solver
           916 MiB given to the printing process from OS
             0 MiB allocation reported by mallinfo(arena+hblkhd)
          2742 MiB available memory on the node where the printing process lives
------------------
     ethr =  3.47E-04,  avg # of iterations =  1.4

     =================== HUBBARD OCCUPATIONS ===================
     ------------------------ ATOM    5 ------------------------
     Tr[ns(  5)] (up, down, total) =   4.83747  4.27082  9.10829
     Atomic magnetic moment for atom   5 =   0.56665
     SPIN  1
     eigenvalues:
       0.910  0.962  0.987  0.988  0.991
     eigenvectors (columns):
      -0.045  0.999 -0.000 -0.000  0.000
      -0.000  0.000  0.000  1.000  0.000
      -0.000  0.000  1.000 -0.000  0.000
       0.999  0.045  0.000  0.000 -0.000
       0.000 -0.000 -0.000 -0.000  1.000
     occupation matrix ns (before diag.):
       0.962 -0.000 -0.000  0.002  0.000
      -0.000  0.988 -0.000  0.000  0.000
      -0.000 -0.000  0.987  0.000  0.000
       0.002  0.000  0.000  0.910 -0.000
       0.000  0.000  0.000 -0.000  0.991
     SPIN  2
     eigenvalues:
       0.375  0.942  0.983  0.984  0.987
     eigenvectors (columns):
      -0.028  1.000 -0.000 -0.000  0.000
      -0.000  0.000  0.000  1.000  0.000
      -0.000  0.000  1.000 -0.000  0.000
       1.000  0.028  0.000  0.000 -0.000
       0.000 -0.000 -0.000 -0.000  1.000
     occupation matrix ns (before diag.):
       0.942 -0.000 -0.000  0.016  0.000
      -0.000  0.984 -0.000  0.000  0.000
      -0.000 -0.000  0.983  0.000  0.000
       0.016  0.000  0.000  0.375 -0.000
       0.000  0.000  0.000 -0.000  0.987
     ------------------------ ATOM    6 ------------------------
     Tr[ns(  6)] (up, down, total) =   4.27078  4.83750  9.10828
     Atomic magnetic moment for atom   6 =  -0.56672
     SPIN  1
     eigenvalues:
       0.375  0.942  0.983  0.984  0.987
     eigenvectors (columns):
      -0.028  1.000 -0.000 -0.000  0.000
      -0.000  0.000  0.000  1.000  0.000
      -0.000  0.000  1.000 -0.000  0.000
       1.000  0.028  0.000  0.000 -0.000
       0.000 -0.000 -0.000 -0.000  1.000
     occupation matrix ns (before diag.):
       0.942 -0.000 -0.000  0.016  0.000
      -0.000  0.984 -0.000  0.000  0.000
      -0.000 -0.000  0.983  0.000  0.000
       0.016  0.000  0.000  0.375 -0.000
       0.000  0.000  0.000 -0.000  0.987
     SPIN  2
     eigenvalues:
       0.910  0.962  0.987  0.988  0.991
     eigenvectors (columns):
      -0.045  0.999 -0.000 -0.000  0.000
      -0.000  0.000  0.000  1.000  0.000
      -0.000  0.000  1.000 -0.000  0.000
       0.999  0.045  0.000  0.000 -0.000
       0.000 -0.000 -0.000 -0.000  1.000
     occupation matrix ns (before diag.):
       0.962 -0.000 -0.000  0.002  0.000
      -0.000  0.988 -0.000  0.000  0.000
      -0.000 -0.000  0.987  0.000  0.000
       0.002  0.000  0.000  0.910 -0.000
       0.000  0.000  0.000 -0.000  0.991

     Number of occupied Hubbard levels =   18.2166

     negative rho (up, down):  8.744E-02 8.744E-02

     HUBBARD ENERGY =    0.0978  (Ry)

     total cpu time spent up to now is       72.8 secs

     total energy              =   -1671.36339698 Ry
     estimated scf accuracy    <       0.18736644 Ry

     total magnetization       =    -0.00 Bohr mag/cell
     absolute magnetization    =     1.44 Bohr mag/cell

     iteration #  8     ecut=    90.00 Ry     beta= 0.10
     Davidson diagonalization with overlap

---- Real-time Memory Report at c_bands before calling an iterative solver
           918 MiB given to the printing process from OS
             0 MiB allocation reported by mallinfo(arena+hblkhd)
          2732 MiB available memory on the node where the printing process lives
------------------
     ethr =  1.44E-04,  avg # of iterations =  7.1

     =================== HUBBARD OCCUPATIONS ===================
     ------------------------ ATOM    5 ------------------------
     Tr[ns(  5)] (up, down, total) =   4.84034  4.53955  9.37989
     Atomic magnetic moment for atom   5 =   0.30080
     SPIN  1
     eigenvalues:
       0.913  0.963  0.986  0.987  0.991
     eigenvectors (columns):
      -0.037  0.999 -0.000 -0.000  0.000
      -0.000  0.000  0.000  1.000  0.000
      -0.000  0.000  1.000 -0.000  0.000
       0.999  0.037  0.000  0.000 -0.000
       0.000 -0.000 -0.000 -0.000  1.000
     occupation matrix ns (before diag.):
       0.963 -0.000 -0.000  0.002  0.000
      -0.000  0.987 -0.000  0.000  0.000
      -0.000 -0.000  0.986  0.000  0.000
       0.002  0.000  0.000  0.913 -0.000
       0.000  0.000  0.000 -0.000  0.991
     SPIN  2
     eigenvalues:
       0.633  0.954  0.982  0.983  0.987
     eigenvectors (columns):
      -0.064  0.998 -0.000 -0.000  0.000
      -0.000  0.000  0.000  1.000  0.000
      -0.000  0.000  1.000 -0.000  0.000
       0.998  0.064  0.000  0.000 -0.000
       0.000 -0.000 -0.000 -0.000  1.000
     occupation matrix ns (before diag.):
       0.953 -0.000 -0.000  0.020  0.000
      -0.000  0.983 -0.000  0.000  0.000
      -0.000 -0.000  0.982  0.000  0.000
       0.020  0.000  0.000  0.634 -0.000
       0.000  0.000  0.000 -0.000  0.987
     ------------------------ ATOM    6 ------------------------
     Tr[ns(  6)] (up, down, total) =   4.54158  4.84050  9.38208
     Atomic magnetic moment for atom   6 =  -0.29891
     SPIN  1
     eigenvalues:
       0.635  0.954  0.982  0.983  0.987
     eigenvectors (columns):
      -0.064  0.998 -0.000 -0.000  0.000
      -0.000  0.000  0.000  1.000  0.000
      -0.000  0.000  1.000 -0.000  0.000
       0.998  0.064  0.000  0.000 -0.000
       0.000 -0.000 -0.000 -0.000  1.000
     occupation matrix ns (before diag.):
       0.953 -0.000 -0.000  0.020  0.000
      -0.000  0.983 -0.000  0.000  0.000
      -0.000 -0.000  0.982  0.000  0.000
       0.020  0.000  0.000  0.636 -0.000
       0.000  0.000  0.000 -0.000  0.987
     SPIN  2
     eigenvalues:
       0.913  0.964  0.987  0.987  0.991
     eigenvectors (columns):
      -0.037  0.999 -0.000 -0.000  0.000
      -0.000  0.000  0.000  1.000  0.000
      -0.000  0.000  1.000 -0.000  0.000
       0.999  0.037  0.000  0.000 -0.000
       0.000 -0.000 -0.000 -0.000  1.000
     occupation matrix ns (before diag.):
       0.963 -0.000 -0.000  0.002  0.000
      -0.000  0.987 -0.000  0.000  0.000
      -0.000 -0.000  0.987  0.000  0.000
       0.002  0.000  0.000  0.913 -0.000
       0.000  0.000  0.000 -0.000  0.991

     Number of occupied Hubbard levels =   18.7620

     negative rho (up, down):  8.719E-02 8.719E-02

     HUBBARD ENERGY =    0.0965  (Ry)

     total cpu time spent up to now is       84.0 secs

     total energy              =   -1671.38410481 Ry
     estimated scf accuracy    <       0.29271140 Ry

     total magnetization       =     0.00 Bohr mag/cell
     absolute magnetization    =     0.84 Bohr mag/cell

     iteration #  9     ecut=    90.00 Ry     beta= 0.10
     Davidson diagonalization with overlap

---- Real-time Memory Report at c_bands before calling an iterative solver
           920 MiB given to the printing process from OS
             0 MiB allocation reported by mallinfo(arena+hblkhd)
          2724 MiB available memory on the node where the printing process lives
------------------
     ethr =  1.44E-04,  avg # of iterations =  1.2

     =================== HUBBARD OCCUPATIONS ===================
     ------------------------ ATOM    5 ------------------------
     Tr[ns(  5)] (up, down, total) =   4.82871  4.40245  9.23115
     Atomic magnetic moment for atom   5 =   0.42626
     SPIN  1
     eigenvalues:
       0.907  0.959  0.986  0.987  0.990
     eigenvectors (columns):
      -0.047  0.999 -0.000 -0.000  0.000
      -0.000  0.000  0.000  1.000  0.000
      -0.000  0.000  1.000 -0.000  0.000
       0.999  0.047  0.000  0.000 -0.000
       0.000 -0.000 -0.000 -0.000  1.000
     occupation matrix ns (before diag.):
       0.959 -0.000 -0.000  0.002  0.000
      -0.000  0.987 -0.000  0.000  0.000
      -0.000 -0.000  0.986  0.000  0.000
       0.002  0.000  0.000  0.907 -0.000
       0.000  0.000  0.000 -0.000  0.990
     SPIN  2
     eigenvalues:
       0.502  0.948  0.982  0.983  0.987
     eigenvectors (columns):
      -0.035  0.999 -0.000 -0.000  0.000
      -0.000  0.000  0.000  1.000  0.000
      -0.000  0.000  1.000 -0.000  0.000
       0.999  0.035  0.000  0.000 -0.000
       0.000 -0.000 -0.000 -0.000  1.000
     occupation matrix ns (before diag.):
       0.948 -0.000 -0.000  0.016  0.000
      -0.000  0.983 -0.000  0.000  0.000
      -0.000 -0.000  0.982  0.000  0.000
       0.016  0.000  0.000  0.503 -0.000
       0.000  0.000  0.000 -0.000  0.987
     ------------------------ ATOM    6 ------------------------
     Tr[ns(  6)] (up, down, total) =   4.39871  4.82831  9.22702
     Atomic magnetic moment for atom   6 =  -0.42961
     SPIN  1
     eigenvalues:
       0.499  0.948  0.982  0.983  0.987
     eigenvectors (columns):
      -0.035  0.999 -0.000 -0.000  0.000
      -0.000  0.000  0.000  1.000  0.000
      -0.000  0.000  1.000 -0.000  0.000
       0.999  0.035  0.000  0.000 -0.000
       0.000 -0.000 -0.000 -0.000  1.000
     occupation matrix ns (before diag.):
       0.947 -0.000 -0.000  0.016  0.000
      -0.000  0.983 -0.000  0.000  0.000
      -0.000 -0.000  0.982  0.000  0.000
       0.016  0.000  0.000  0.499 -0.000
       0.000  0.000  0.000 -0.000  0.987
     SPIN  2
     eigenvalues:
       0.907  0.959  0.986  0.986  0.990
     eigenvectors (columns):
      -0.048  0.999 -0.000 -0.000  0.000
      -0.000  0.000  0.000  1.000  0.000
      -0.000  0.000  1.000 -0.000  0.000
       0.999  0.048  0.000  0.000 -0.000
       0.000 -0.000 -0.000 -0.000  1.000
     occupation matrix ns (before diag.):
       0.959 -0.000 -0.000  0.002  0.000
      -0.000  0.986 -0.000  0.000  0.000
      -0.000 -0.000  0.986  0.000  0.000
       0.002  0.000  0.000  0.907 -0.000
       0.000  0.000  0.000 -0.000  0.990

     Number of occupied Hubbard levels =   18.4582

     negative rho (up, down):  8.670E-02 8.671E-02

     HUBBARD ENERGY =    0.0936  (Ry)

     total cpu time spent up to now is       93.6 secs

     total energy              =   -1671.39659166 Ry
     estimated scf accuracy    <       0.02538182 Ry

     total magnetization       =    -0.01 Bohr mag/cell
     absolute magnetization    =     1.13 Bohr mag/cell

     iteration # 10     ecut=    90.00 Ry     beta= 0.10
     Davidson diagonalization with overlap

---- Real-time Memory Report at c_bands before calling an iterative solver
           922 MiB given to the printing process from OS
             0 MiB allocation reported by mallinfo(arena+hblkhd)
          2713 MiB available memory on the node where the printing process lives
------------------
     ethr =  1.95E-05,  avg # of iterations =  6.2

     =================== HUBBARD OCCUPATIONS ===================
     ------------------------ ATOM    5 ------------------------
     Tr[ns(  5)] (up, down, total) =   4.82216  4.36331  9.18548
     Atomic magnetic moment for atom   5 =   0.45885
     SPIN  1
     eigenvalues:
       0.904  0.956  0.985  0.986  0.990
     eigenvectors (columns):
      -0.059  0.998 -0.000 -0.000  0.000
      -0.000  0.000  0.000  1.000  0.000
      -0.000  0.000  1.000 -0.000  0.000
       0.998  0.059  0.000  0.000 -0.000
       0.000 -0.000 -0.000 -0.000  1.000
     occupation matrix ns (before diag.):
       0.956 -0.000 -0.000  0.003  0.000
      -0.000  0.986 -0.000  0.000  0.000
      -0.000 -0.000  0.985  0.000  0.000
       0.003  0.000  0.000  0.905 -0.000
       0.000  0.000  0.000 -0.000  0.990
     SPIN  2
     eigenvalues:
       0.464  0.946  0.982  0.984  0.988
     eigenvectors (columns):
      -0.034  0.999 -0.000 -0.000  0.000
      -0.000  0.000  0.000  1.000  0.000
      -0.000  0.000  1.000 -0.000  0.000
       0.999  0.034  0.000  0.000 -0.000
       0.000 -0.000 -0.000 -0.000  1.000
     occupation matrix ns (before diag.):
       0.946 -0.000 -0.000  0.016  0.000
      -0.000  0.984 -0.000  0.000  0.000
      -0.000 -0.000  0.982  0.000  0.000
       0.016  0.000  0.000  0.464 -0.000
       0.000  0.000  0.000 -0.000  0.988
     ------------------------ ATOM    6 ------------------------
     Tr[ns(  6)] (up, down, total) =   4.38233  4.82412  9.20644
     Atomic magnetic moment for atom   6 =  -0.44179
     SPIN  1
     eigenvalues:
       0.481  0.948  0.983  0.984  0.988
     eigenvectors (columns):
      -0.034  0.999 -0.000 -0.000  0.000
      -0.000  0.000  0.000  1.000  0.000
      -0.000  0.000  1.000 -0.000  0.000
       0.999  0.034  0.000  0.000 -0.000
       0.000 -0.000 -0.000 -0.000  1.000
     occupation matrix ns (before diag.):
       0.947 -0.000 -0.000  0.016  0.000
      -0.000  0.984 -0.000  0.000  0.000
      -0.000 -0.000  0.983  0.000  0.000
       0.016  0.000  0.000  0.481 -0.000
       0.000  0.000  0.000 -0.000  0.988
     SPIN  2
     eigenvalues:
       0.905  0.957  0.986  0.986  0.990
     eigenvectors (columns):
      -0.053  0.999 -0.000 -0.000  0.000
      -0.000  0.000  0.000  1.000  0.000
      -0.000  0.000  1.000 -0.000  0.000
       0.999  0.053  0.000  0.000 -0.000
       0.000 -0.000 -0.000 -0.000  1.000
     occupation matrix ns (before diag.):
       0.957 -0.000 -0.000  0.003  0.000
      -0.000  0.986 -0.000  0.000  0.000
      -0.000 -0.000  0.986  0.000  0.000
       0.003  0.000  0.000  0.905 -0.000
       0.000  0.000  0.000 -0.000  0.990

     Number of occupied Hubbard levels =   18.3919

     negative rho (up, down):  8.648E-02 8.649E-02

     HUBBARD ENERGY =    0.0923  (Ry)

     total cpu time spent up to now is      104.5 secs

     total energy              =   -1671.39799136 Ry
     estimated scf accuracy    <       0.00734195 Ry

     total magnetization       =     0.03 Bohr mag/cell
     absolute magnetization    =     1.19 Bohr mag/cell

     iteration # 11     ecut=    90.00 Ry     beta= 0.10
     Davidson diagonalization with overlap

---- Real-time Memory Report at c_bands before calling an iterative solver
           924 MiB given to the printing process from OS
             0 MiB allocation reported by mallinfo(arena+hblkhd)
          2717 MiB available memory on the node where the printing process lives
------------------
     ethr =  5.65E-06,  avg # of iterations =  3.8

     =================== HUBBARD OCCUPATIONS ===================
     ------------------------ ATOM    5 ------------------------
     Tr[ns(  5)] (up, down, total) =   4.82407  4.43640  9.26046
     Atomic magnetic moment for atom   5 =   0.38767
     SPIN  1
     eigenvalues:
       0.905  0.957  0.985  0.986  0.990
     eigenvectors (columns):
      -0.052  0.999 -0.000 -0.000  0.000
      -0.000  0.000  0.000  1.000  0.000
      -0.000  0.000  1.000 -0.000  0.000
       0.999  0.052  0.000  0.000 -0.000
       0.000 -0.000 -0.000 -0.000  1.000
     occupation matrix ns (before diag.):
       0.957 -0.000 -0.000  0.003  0.000
      -0.000  0.986 -0.000  0.000  0.000
      -0.000 -0.000  0.985  0.000  0.000
       0.003  0.000  0.000  0.906 -0.000
       0.000  0.000  0.000 -0.000  0.990
     SPIN  2
     eigenvalues:
       0.533  0.949  0.983  0.984  0.988
     eigenvectors (columns):
      -0.034  0.999 -0.000 -0.000  0.000
      -0.000  0.000  0.000  1.000  0.000
      -0.000  0.000  1.000 -0.000  0.000
       0.999  0.034  0.000  0.000 -0.000
       0.000 -0.000 -0.000 -0.000  1.000
     occupation matrix ns (before diag.):
       0.949 -0.000 -0.000  0.014  0.000
      -0.000  0.984 -0.000  0.000  0.000
      -0.000 -0.000  0.983  0.000  0.000
       0.014  0.000  0.000  0.534 -0.000
       0.000  0.000  0.000 -0.000  0.988
     ------------------------ ATOM    6 ------------------------
     Tr[ns(  6)] (up, down, total) =   4.41381  4.82108  9.23489
     Atomic magnetic moment for atom   6 =  -0.40727
     SPIN  1
     eigenvalues:
       0.513  0.948  0.982  0.983  0.988
     eigenvectors (columns):
      -0.033  0.999 -0.000 -0.000  0.000
      -0.000  0.000  0.000  1.000  0.000
      -0.000  0.000  1.000 -0.000  0.000
       0.999  0.033  0.000  0.000 -0.000
       0.000 -0.000 -0.000 -0.000  1.000
     occupation matrix ns (before diag.):
       0.947 -0.000 -0.000  0.014  0.000
      -0.000  0.983 -0.000  0.000  0.000
      -0.000 -0.000  0.982  0.000  0.000
       0.014  0.000  0.000  0.513 -0.000
       0.000  0.000  0.000 -0.000  0.988
     SPIN  2
     eigenvalues:
       0.904  0.956  0.985  0.986  0.990
     eigenvectors (columns):
      -0.058  0.998 -0.000 -0.000  0.000
      -0.000  0.000  0.000  1.000  0.000
      -0.000  0.000  1.000 -0.000  0.000
       0.998  0.058  0.000  0.000 -0.000
       0.000 -0.000 -0.000 -0.000  1.000
     occupation matrix ns (before diag.):
       0.956 -0.000 -0.000  0.003  0.000
      -0.000  0.986 -0.000  0.000  0.000
      -0.000 -0.000  0.985  0.000  0.000
       0.003  0.000  0.000  0.904 -0.000
       0.000  0.000  0.000 -0.000  0.990

     Number of occupied Hubbard levels =   18.4953

     negative rho (up, down):  8.640E-02 8.640E-02

     HUBBARD ENERGY =    0.0920  (Ry)

     total cpu time spent up to now is      114.9 secs

     total energy              =   -1671.39946207 Ry
     estimated scf accuracy    <       0.01686773 Ry

     total magnetization       =    -0.03 Bohr mag/cell
     absolute magnetization    =     1.07 Bohr mag/cell

     iteration # 12     ecut=    90.00 Ry     beta= 0.10
     Davidson diagonalization with overlap

---- Real-time Memory Report at c_bands before calling an iterative solver
           924 MiB given to the printing process from OS
             0 MiB allocation reported by mallinfo(arena+hblkhd)
          2716 MiB available memory on the node where the printing process lives
------------------
     ethr =  5.65E-06,  avg # of iterations =  1.0

     =================== HUBBARD OCCUPATIONS ===================
     ------------------------ ATOM    5 ------------------------
     Tr[ns(  5)] (up, down, total) =   4.82385  4.45029  9.27413
     Atomic magnetic moment for atom   5 =   0.37356
     SPIN  1
     eigenvalues:
       0.905  0.957  0.985  0.986  0.990
     eigenvectors (columns):
      -0.055  0.999 -0.000 -0.000  0.000
      -0.000  0.000  0.000  1.000  0.000
      -0.000  0.000  1.000 -0.000  0.000
       0.999  0.055  0.000  0.000 -0.000
       0.000 -0.000 -0.000 -0.000  1.000
     occupation matrix ns (before diag.):
       0.957 -0.000 -0.000  0.003  0.000
      -0.000  0.986 -0.000  0.000  0.000
      -0.000 -0.000  0.985  0.000  0.000
       0.003  0.000  0.000  0.906 -0.000
       0.000  0.000  0.000 -0.000  0.990
     SPIN  2
     eigenvalues:
       0.546  0.950  0.983  0.984  0.988
     eigenvectors (columns):
      -0.034  0.999 -0.000 -0.000  0.000
      -0.000  0.000  0.000  1.000  0.000
      -0.000  0.000  1.000 -0.000  0.000
       0.999  0.034  0.000  0.000 -0.000
       0.000 -0.000 -0.000 -0.000  1.000
     occupation matrix ns (before diag.):
       0.950 -0.000 -0.000  0.014  0.000
      -0.000  0.984 -0.000  0.000  0.000
      -0.000 -0.000  0.983  0.000  0.000
       0.014  0.000  0.000  0.546 -0.000
       0.000  0.000  0.000 -0.000  0.988
     ------------------------ ATOM    6 ------------------------
     Tr[ns(  6)] (up, down, total) =   4.44822  4.82335  9.27157
     Atomic magnetic moment for atom   6 =  -0.37513
     SPIN  1
     eigenvalues:
       0.544  0.950  0.983  0.984  0.988
     eigenvectors (columns):
      -0.034  0.999 -0.000 -0.000  0.000
      -0.000  0.000  0.000  1.000  0.000
      -0.000  0.000  1.000 -0.000  0.000
       0.999  0.034  0.000  0.000 -0.000
       0.000 -0.000 -0.000 -0.000  1.000
     occupation matrix ns (before diag.):
       0.950 -0.000 -0.000  0.014  0.000
      -0.000  0.984 -0.000  0.000  0.000
      -0.000 -0.000  0.983  0.000  0.000
       0.014  0.000  0.000  0.544 -0.000
       0.000  0.000  0.000 -0.000  0.988
     SPIN  2
     eigenvalues:
       0.905  0.957  0.985  0.986  0.990
     eigenvectors (columns):
      -0.055  0.998 -0.000 -0.000  0.000
      -0.000  0.000  0.000  1.000  0.000
      -0.000  0.000  1.000 -0.000  0.000
       0.998  0.055  0.000  0.000 -0.000
       0.000 -0.000 -0.000 -0.000  1.000
     occupation matrix ns (before diag.):
       0.957 -0.000 -0.000  0.003  0.000
      -0.000  0.986 -0.000  0.000  0.000
      -0.000 -0.000  0.985  0.000  0.000
       0.003  0.000  0.000  0.905 -0.000
       0.000  0.000  0.000 -0.000  0.990

     Number of occupied Hubbard levels =   18.5457

     negative rho (up, down):  8.630E-02 8.630E-02

     HUBBARD ENERGY =    0.0918  (Ry)

     total cpu time spent up to now is      124.3 secs

     total energy              =   -1671.39684425 Ry
     estimated scf accuracy    <       0.02568998 Ry

     total magnetization       =    -0.00 Bohr mag/cell
     absolute magnetization    =     1.02 Bohr mag/cell

     iteration # 13     ecut=    90.00 Ry     beta= 0.10
     Davidson diagonalization with overlap

---- Real-time Memory Report at c_bands before calling an iterative solver
           924 MiB given to the printing process from OS
             0 MiB allocation reported by mallinfo(arena+hblkhd)
          2715 MiB available memory on the node where the printing process lives
------------------
     ethr =  5.65E-06,  avg # of iterations =  5.8

     =================== HUBBARD OCCUPATIONS ===================
     ------------------------ ATOM    5 ------------------------
     Tr[ns(  5)] (up, down, total) =   4.81771  4.36566  9.18337
     Atomic magnetic moment for atom   5 =   0.45205
     SPIN  1
     eigenvalues:
       0.903  0.955  0.985  0.985  0.990
     eigenvectors (columns):
      -0.074  0.997 -0.000 -0.000  0.000
      -0.000  0.000  1.000 -0.000  0.000
      -0.000  0.000  0.000  1.000  0.000
       0.997  0.074  0.000  0.000 -0.000
       0.000 -0.000 -0.000 -0.000  1.000
     occupation matrix ns (before diag.):
       0.954 -0.000 -0.000  0.004  0.000
      -0.000  0.985 -0.000  0.000  0.000
      -0.000 -0.000  0.985  0.000  0.000
       0.004  0.000  0.000  0.903 -0.000
       0.000  0.000  0.000 -0.000  0.990
     SPIN  2
     eigenvalues:
       0.464  0.948  0.982  0.983  0.989
     eigenvectors (columns):
      -0.031  1.000 -0.000 -0.000  0.000
      -0.000  0.000  1.000 -0.000  0.000
      -0.000  0.000  0.000  1.000  0.000
       1.000  0.031  0.000  0.000 -0.000
       0.000 -0.000 -0.000 -0.000  1.000
     occupation matrix ns (before diag.):
       0.947 -0.000 -0.000  0.015  0.000
      -0.000  0.982 -0.000  0.000  0.000
      -0.000 -0.000  0.983  0.000  0.000
       0.015  0.000  0.000  0.465 -0.000
       0.000  0.000  0.000 -0.000  0.989
     ------------------------ ATOM    6 ------------------------
     Tr[ns(  6)] (up, down, total) =   4.37001  4.81810  9.18812
     Atomic magnetic moment for atom   6 =  -0.44809
     SPIN  1
     eigenvalues:
       0.468  0.948  0.982  0.983  0.989
     eigenvectors (columns):
      -0.031  1.000 -0.000 -0.000  0.000
      -0.000  0.000  1.000 -0.000  0.000
      -0.000  0.000  0.000  1.000  0.000
       1.000  0.031  0.000  0.000 -0.000
       0.000 -0.000 -0.000 -0.000  1.000
     occupation matrix ns (before diag.):
       0.948 -0.000 -0.000  0.015  0.000
      -0.000  0.982 -0.000  0.000  0.000
      -0.000 -0.000  0.983  0.000  0.000
       0.015  0.000  0.000  0.469 -0.000
       0.000  0.000  0.000 -0.000  0.989
     SPIN  2
     eigenvalues:
       0.903  0.955  0.985  0.985  0.990
     eigenvectors (columns):
      -0.073  0.997 -0.000 -0.000  0.000
      -0.000  0.000  1.000 -0.000  0.000
      -0.000  0.000  0.000  1.000  0.000
       0.997  0.073  0.000  0.000 -0.000
       0.000 -0.000 -0.000 -0.000  1.000
     occupation matrix ns (before diag.):
       0.955 -0.000 -0.000  0.004  0.000
      -0.000  0.985 -0.000  0.000  0.000
      -0.000 -0.000  0.985  0.000  0.000
       0.004  0.000  0.000  0.903 -0.000
       0.000  0.000  0.000 -0.000  0.990

     Number of occupied Hubbard levels =   18.3715

     negative rho (up, down):  8.631E-02 8.631E-02

     HUBBARD ENERGY =    0.0919  (Ry)

     total cpu time spent up to now is      135.3 secs

     total energy              =   -1671.40216441 Ry
     estimated scf accuracy    <       0.06080077 Ry

     total magnetization       =     0.01 Bohr mag/cell
     absolute magnetization    =     1.22 Bohr mag/cell

     iteration # 14     ecut=    90.00 Ry     beta= 0.10
     Davidson diagonalization with overlap

---- Real-time Memory Report at c_bands before calling an iterative solver
           924 MiB given to the printing process from OS
             0 MiB allocation reported by mallinfo(arena+hblkhd)
          2714 MiB available memory on the node where the printing process lives
------------------
     ethr =  5.65E-06,  avg # of iterations =  1.6
     Minimization algorithm failed to find Fermi energy: reverting to bisection
     Possible cause: smearing is larger than the electronic band-gap.

     =================== HUBBARD OCCUPATIONS ===================
     ------------------------ ATOM    5 ------------------------
     Tr[ns(  5)] (up, down, total) =   4.81825  4.36643  9.18469
     Atomic magnetic moment for atom   5 =   0.45182
     SPIN  1
     eigenvalues:
       0.904  0.955  0.984  0.985  0.991
     eigenvectors (columns):
      -0.073  0.997 -0.000 -0.000  0.000
      -0.000  0.000  1.000 -0.000  0.000
      -0.000  0.000  0.000  1.000  0.000
       0.997  0.073  0.000  0.000 -0.000
       0.000 -0.000 -0.000 -0.000  1.000
     occupation matrix ns (before diag.):
       0.955 -0.000 -0.000  0.004  0.000
      -0.000  0.984 -0.000  0.000  0.000
      -0.000 -0.000  0.985  0.000  0.000
       0.004  0.000  0.000  0.904 -0.000
       0.000  0.000  0.000 -0.000  0.991
     SPIN  2
     eigenvalues:
       0.466  0.949  0.980  0.982  0.990
     eigenvectors (columns):
      -0.031  1.000 -0.000 -0.000  0.000
      -0.000  0.000  1.000 -0.000  0.000
      -0.000  0.000  0.000  1.000  0.000
       1.000  0.031  0.000  0.000 -0.000
       0.000 -0.000 -0.000 -0.000  1.000
     occupation matrix ns (before diag.):
       0.948 -0.000 -0.000  0.015  0.000
      -0.000  0.980 -0.000  0.000  0.000
      -0.000 -0.000  0.982  0.000  0.000
       0.015  0.000  0.000  0.466 -0.000
       0.000  0.000  0.000 -0.000  0.990
     ------------------------ ATOM    6 ------------------------
     Tr[ns(  6)] (up, down, total) =   4.37094  4.81867  9.18961
     Atomic magnetic moment for atom   6 =  -0.44773
     SPIN  1
     eigenvalues:
       0.470  0.949  0.980  0.982  0.990
     eigenvectors (columns):
      -0.031  1.000 -0.000 -0.000  0.000
      -0.000  0.000  1.000 -0.000  0.000
      -0.000  0.000  0.000  1.000  0.000
       1.000  0.031  0.000  0.000 -0.000
       0.000 -0.000 -0.000 -0.000  1.000
     occupation matrix ns (before diag.):
       0.949 -0.000 -0.000  0.015  0.000
      -0.000  0.980 -0.000  0.000  0.000
      -0.000 -0.000  0.982  0.000  0.000
       0.015  0.000  0.000  0.470 -0.000
       0.000  0.000  0.000 -0.000  0.990
     SPIN  2
     eigenvalues:
       0.904  0.955  0.984  0.985  0.991
     eigenvectors (columns):
      -0.072  0.997 -0.000 -0.000  0.000
      -0.000  0.000  1.000 -0.000  0.000
      -0.000  0.000  0.000  1.000  0.000
       0.997  0.072  0.000  0.000 -0.000
       0.000 -0.000 -0.000 -0.000  1.000
     occupation matrix ns (before diag.):
       0.955 -0.000 -0.000  0.004  0.000
      -0.000  0.984 -0.000  0.000  0.000
      -0.000 -0.000  0.985  0.000  0.000
       0.004  0.000  0.000  0.904 -0.000
       0.000  0.000  0.000 -0.000  0.991

     Number of occupied Hubbard levels =   18.3743

     negative rho (up, down):  8.629E-02 8.629E-02

     HUBBARD ENERGY =    0.0920  (Ry)

     total cpu time spent up to now is      145.1 secs

     total energy              =   -1671.39528192 Ry
     estimated scf accuracy    <       0.13678139 Ry

     total magnetization       =     0.01 Bohr mag/cell
     absolute magnetization    =     1.23 Bohr mag/cell

     iteration # 15     ecut=    90.00 Ry     beta= 0.10
     Davidson diagonalization with overlap

---- Real-time Memory Report at c_bands before calling an iterative solver
           924 MiB given to the printing process from OS
             0 MiB allocation reported by mallinfo(arena+hblkhd)
          2712 MiB available memory on the node where the printing process lives
------------------
     ethr =  5.65E-06,  avg # of iterations =  1.9
     Minimization algorithm failed to find Fermi energy: reverting to bisection
     Possible cause: smearing is larger than the electronic band-gap.

     =================== HUBBARD OCCUPATIONS ===================
     ------------------------ ATOM    5 ------------------------
     Tr[ns(  5)] (up, down, total) =   4.81970  4.44174  9.26145
     Atomic magnetic moment for atom   5 =   0.37796
     SPIN  1
     eigenvalues:
       0.903  0.955  0.985  0.986  0.990
     eigenvectors (columns):
      -0.064  0.998 -0.000 -0.000  0.000
      -0.000  0.000  0.000  1.000  0.000
      -0.000  0.000  1.000 -0.000  0.000
       0.998  0.064  0.000  0.000 -0.000
       0.000 -0.000 -0.000 -0.000  1.000
     occupation matrix ns (before diag.):
       0.955 -0.000 -0.000  0.003  0.000
      -0.000  0.986 -0.000  0.000  0.000
      -0.000 -0.000  0.985  0.000  0.000
       0.003  0.000  0.000  0.904 -0.000
       0.000  0.000  0.000 -0.000  0.990
     SPIN  2
     eigenvalues:
       0.536  0.950  0.983  0.984  0.988
     eigenvectors (columns):
      -0.031  1.000 -0.000 -0.000  0.000
      -0.000  0.000  0.000  1.000  0.000
      -0.000  0.000  1.000 -0.000  0.000
       1.000  0.031  0.000  0.000 -0.000
       0.000 -0.000 -0.000 -0.000  1.000
     occupation matrix ns (before diag.):
       0.949 -0.000 -0.000  0.013  0.000
      -0.000  0.984 -0.000  0.000  0.000
      -0.000 -0.000  0.983  0.000  0.000
       0.013  0.000  0.000  0.537 -0.000
       0.000  0.000  0.000 -0.000  0.988
     ------------------------ ATOM    6 ------------------------
     Tr[ns(  6)] (up, down, total) =   4.44301  4.81985  9.26287
     Atomic magnetic moment for atom   6 =  -0.37684
     SPIN  1
     eigenvalues:
       0.538  0.950  0.983  0.984  0.988
     eigenvectors (columns):
      -0.031  1.000 -0.000 -0.000  0.000
      -0.000  0.000  0.000  1.000  0.000
      -0.000  0.000  1.000 -0.000  0.000
       1.000  0.031  0.000  0.000 -0.000
       0.000 -0.000 -0.000 -0.000  1.000
     occupation matrix ns (before diag.):
       0.949 -0.000 -0.000  0.013  0.000
      -0.000  0.984 -0.000  0.000  0.000
      -0.000 -0.000  0.983  0.000  0.000
       0.013  0.000  0.000  0.538 -0.000
       0.000  0.000  0.000 -0.000  0.988
     SPIN  2
     eigenvalues:
       0.903  0.955  0.985  0.986  0.990
     eigenvectors (columns):
      -0.064  0.998 -0.000 -0.000  0.000
      -0.000  0.000  0.000  1.000  0.000
      -0.000  0.000  1.000 -0.000  0.000
       0.998  0.064  0.000  0.000 -0.000
       0.000 -0.000 -0.000 -0.000  1.000
     occupation matrix ns (before diag.):
       0.955 -0.000 -0.000  0.003  0.000
      -0.000  0.986 -0.000  0.000  0.000
      -0.000 -0.000  0.985  0.000  0.000
       0.003  0.000  0.000  0.904 -0.000
       0.000  0.000  0.000 -0.000  0.990

     Number of occupied Hubbard levels =   18.5243

     negative rho (up, down):  8.635E-02 8.635E-02

     HUBBARD ENERGY =    0.0929  (Ry)

     total cpu time spent up to now is      155.2 secs

     total energy              =   -1671.39920899 Ry
     estimated scf accuracy    <       0.00749021 Ry

     total magnetization       =     0.00 Bohr mag/cell
     absolute magnetization    =     1.04 Bohr mag/cell

     iteration # 16     ecut=    90.00 Ry     beta= 0.10
     Davidson diagonalization with overlap

---- Real-time Memory Report at c_bands before calling an iterative solver
           924 MiB given to the printing process from OS
             0 MiB allocation reported by mallinfo(arena+hblkhd)
          2721 MiB available memory on the node where the printing process lives
------------------
     ethr =  5.65E-06,  avg # of iterations =  1.0
     Minimization algorithm failed to find Fermi energy: reverting to bisection
     Possible cause: smearing is larger than the electronic band-gap.

     =================== HUBBARD OCCUPATIONS ===================
     ------------------------ ATOM    5 ------------------------
     Tr[ns(  5)] (up, down, total) =   4.81549  4.41831  9.23380
     Atomic magnetic moment for atom   5 =   0.39717
     SPIN  1
     eigenvalues:
       0.901  0.954  0.985  0.985  0.990
     eigenvectors (columns):
      -0.070  0.998 -0.000 -0.000  0.000
      -0.000  0.000  0.000  1.000  0.000
      -0.000  0.000  1.000 -0.000  0.000
       0.998  0.070  0.000  0.000 -0.000
       0.000 -0.000 -0.000 -0.000  1.000
     occupation matrix ns (before diag.):
       0.954 -0.000 -0.000  0.004  0.000
      -0.000  0.985 -0.000  0.000  0.000
      -0.000 -0.000  0.985  0.000  0.000
       0.004  0.000  0.000  0.901 -0.000
       0.000  0.000  0.000 -0.000  0.990
     SPIN  2
     eigenvalues:
       0.515  0.949  0.983  0.984  0.988
     eigenvectors (columns):
      -0.029  1.000 -0.000 -0.000  0.000
      -0.000  0.000  0.000  1.000  0.000
      -0.000  0.000  1.000 -0.000  0.000
       1.000  0.029  0.000  0.000 -0.000
       0.000 -0.000 -0.000 -0.000  1.000
     occupation matrix ns (before diag.):
       0.948 -0.000 -0.000  0.013  0.000
      -0.000  0.984 -0.000  0.000  0.000
      -0.000 -0.000  0.983  0.000  0.000
       0.013  0.000  0.000  0.515 -0.000
       0.000  0.000  0.000 -0.000  0.988
     ------------------------ ATOM    6 ------------------------
     Tr[ns(  6)] (up, down, total) =   4.42063  4.81576  9.23640
     Atomic magnetic moment for atom   6 =  -0.39513
     SPIN  1
     eigenvalues:
       0.517  0.949  0.983  0.984  0.988
     eigenvectors (columns):
      -0.029  1.000 -0.000 -0.000  0.000
      -0.000  0.000  0.000  1.000  0.000
      -0.000  0.000  1.000 -0.000  0.000
       1.000  0.029  0.000  0.000 -0.000
       0.000 -0.000 -0.000 -0.000  1.000
     occupation matrix ns (before diag.):
       0.948 -0.000 -0.000  0.013  0.000
      -0.000  0.984 -0.000  0.000  0.000
      -0.000 -0.000  0.983  0.000  0.000
       0.013  0.000  0.000  0.517 -0.000
       0.000  0.000  0.000 -0.000  0.988
     SPIN  2
     eigenvalues:
       0.901  0.954  0.985  0.986  0.990
     eigenvectors (columns):
      -0.070  0.998 -0.000 -0.000  0.000
      -0.000  0.000  0.000  1.000  0.000
      -0.000  0.000  1.000 -0.000  0.000
       0.998  0.070  0.000  0.000 -0.000
       0.000 -0.000 -0.000 -0.000  1.000
     occupation matrix ns (before diag.):
       0.954 -0.000 -0.000  0.004  0.000
      -0.000  0.986 -0.000  0.000  0.000
      -0.000 -0.000  0.985  0.000  0.000
       0.004  0.000  0.000  0.901 -0.000
       0.000  0.000  0.000 -0.000  0.990

     Number of occupied Hubbard levels =   18.4702

     negative rho (up, down):  8.635E-02 8.635E-02

     HUBBARD ENERGY =    0.0928  (Ry)

     total cpu time spent up to now is      164.8 secs

     total energy              =   -1671.39949301 Ry
     estimated scf accuracy    <       0.00129968 Ry

     total magnetization       =     0.00 Bohr mag/cell
     absolute magnetization    =     1.09 Bohr mag/cell

     iteration # 17     ecut=    90.00 Ry     beta= 0.10
     Davidson diagonalization with overlap

---- Real-time Memory Report at c_bands before calling an iterative solver
           924 MiB given to the printing process from OS
             0 MiB allocation reported by mallinfo(arena+hblkhd)
          2716 MiB available memory on the node where the printing process lives
------------------
     ethr =  1.00E-06,  avg # of iterations =  1.1
     Minimization algorithm failed to find Fermi energy: reverting to bisection
     Possible cause: smearing is larger than the electronic band-gap.

     =================== HUBBARD OCCUPATIONS ===================
     ------------------------ ATOM    5 ------------------------
     Tr[ns(  5)] (up, down, total) =   4.81617  4.42316  9.23932
     Atomic magnetic moment for atom   5 =   0.39301
     SPIN  1
     eigenvalues:
       0.901  0.954  0.985  0.986  0.990
     eigenvectors (columns):
      -0.069  0.998 -0.000 -0.000  0.000
      -0.000  0.000  0.000  1.000  0.000
      -0.000  0.000  1.000 -0.000  0.000
       0.998  0.069  0.000  0.000 -0.000
       0.000 -0.000 -0.000 -0.000  1.000
     occupation matrix ns (before diag.):
       0.954 -0.000 -0.000  0.004  0.000
      -0.000  0.986 -0.000  0.000  0.000
      -0.000 -0.000  0.985  0.000  0.000
       0.004  0.000  0.000  0.902 -0.000
       0.000  0.000  0.000 -0.000  0.990
     SPIN  2
     eigenvalues:
       0.519  0.949  0.983  0.984  0.988
     eigenvectors (columns):
      -0.030  1.000 -0.000 -0.000  0.000
      -0.000  0.000  0.000  1.000  0.000
      -0.000  0.000  1.000 -0.000  0.000
       1.000  0.030  0.000  0.000 -0.000
       0.000 -0.000 -0.000 -0.000  1.000
     occupation matrix ns (before diag.):
       0.948 -0.000 -0.000  0.013  0.000
      -0.000  0.984 -0.000  0.000  0.000
      -0.000 -0.000  0.983  0.000  0.000
       0.013  0.000  0.000  0.520 -0.000
       0.000  0.000  0.000 -0.000  0.988
     ------------------------ ATOM    6 ------------------------
     Tr[ns(  6)] (up, down, total) =   4.42542  4.81644  9.24186
     Atomic magnetic moment for atom   6 =  -0.39102
     SPIN  1
     eigenvalues:
       0.521  0.949  0.983  0.984  0.988
     eigenvectors (columns):
      -0.030  1.000 -0.000 -0.000  0.000
      -0.000  0.000  0.000  1.000  0.000
      -0.000  0.000  1.000 -0.000  0.000
       1.000  0.030  0.000  0.000 -0.000
       0.000 -0.000 -0.000 -0.000  1.000
     occupation matrix ns (before diag.):
       0.949 -0.000 -0.000  0.013  0.000
      -0.000  0.984 -0.000  0.000  0.000
      -0.000 -0.000  0.983  0.000  0.000
       0.013  0.000  0.000  0.522 -0.000
       0.000  0.000  0.000 -0.000  0.988
     SPIN  2
     eigenvalues:
       0.902  0.954  0.985  0.986  0.990
     eigenvectors (columns):
      -0.068  0.998 -0.000 -0.000  0.000
      -0.000  0.000  0.000  1.000  0.000
      -0.000  0.000  1.000 -0.000  0.000
       0.998  0.068  0.000  0.000 -0.000
       0.000 -0.000 -0.000 -0.000  1.000
     occupation matrix ns (before diag.):
       0.954 -0.000 -0.000  0.004  0.000
      -0.000  0.986 -0.000  0.000  0.000
      -0.000 -0.000  0.985  0.000  0.000
       0.004  0.000  0.000  0.902 -0.000
       0.000  0.000  0.000 -0.000  0.990

     Number of occupied Hubbard levels =   18.4812

     negative rho (up, down):  8.629E-02 8.629E-02

     HUBBARD ENERGY =    0.0930  (Ry)

     total cpu time spent up to now is      174.2 secs

     total energy              =   -1671.39953322 Ry
     estimated scf accuracy    <       0.00162623 Ry

     total magnetization       =     0.00 Bohr mag/cell
     absolute magnetization    =     1.08 Bohr mag/cell

     iteration # 18     ecut=    90.00 Ry     beta= 0.10
     Davidson diagonalization with overlap

---- Real-time Memory Report at c_bands before calling an iterative solver
           924 MiB given to the printing process from OS
             0 MiB allocation reported by mallinfo(arena+hblkhd)
          2716 MiB available memory on the node where the printing process lives
------------------
     ethr =  1.00E-06,  avg # of iterations =  1.4
     Minimization algorithm failed to find Fermi energy: reverting to bisection
     Possible cause: smearing is larger than the electronic band-gap.

[...]
     1.0000   1.0000   1.0000   1.0001   1.0003   1.0010   1.0063   1.0226
     0.8846   0.3981  -0.0111  -0.0000  -0.0000  -0.0000  -0.0000  -0.0000
    -0.0000  -0.0000  -0.0000  -0.0000  -0.0000  -0.0000

          k =-0.4936 0.0000-0.1617 ( 17556 PWs)   bands (ev):

  -102.6218-101.9971-101.5675 -60.2164 -60.0021 -59.7485 -59.6177 -59.5626
   -59.0886 -59.0361 -58.9936 -58.8091 -30.9379 -15.5877 -15.5785 -11.4484
   -11.1643 -10.9330  -7.4247  -7.1723  -7.0965  -6.8516  -6.6160  -6.5451
    -6.2146  -1.0180  -0.8537  -0.7480  -0.7075  -0.5122  -0.4975   4.0011
     4.4653   5.3525   5.3868   5.4780   5.9080   6.0156   6.1337   6.3463
     6.3496   6.3536   6.4468   6.6799   6.7147   7.1217   7.1242   7.2168
     7.3116   7.5762   7.6008   7.8450   7.8711   8.0475   8.1702   8.2923
     8.5132   8.5419   8.7162   8.9128   8.9443   8.9774   9.1025   9.1960
     9.4776   9.6396  10.2205  14.3982  14.7674  15.0841  15.5065  16.1282
    16.3428  16.3678  16.7900  16.8682  17.0918  17.1051

     occupation numbers 
     1.0000   1.0000   1.0000   1.0000   1.0000   1.0000   1.0000   1.0000
     1.0000   1.0000   1.0000   1.0000   1.0000   1.0000   1.0000   1.0000
     1.0000   1.0000   1.0000   1.0000   1.0000   1.0000   1.0000   1.0000
     1.0000   1.0000   1.0000   1.0000   1.0000   1.0000   1.0000   1.0000
     1.0000   1.0000   1.0000   1.0000   1.0000   1.0000   1.0000   1.0000
     1.0000   1.0000   1.0000   1.0000   1.0000   1.0000   1.0000   1.0000
     1.0000   1.0000   1.0000   1.0000   1.0000   1.0000   1.0000   1.0000
     1.0000   1.0000   1.0000   1.0003   1.0006   1.0010   1.0063   1.0173
     0.9582   0.5839  -0.0071  -0.0000  -0.0000  -0.0000  -0.0000  -0.0000
    -0.0000  -0.0000  -0.0000  -0.0000  -0.0000  -0.0000

          k =-0.4936-0.4843 0.0000 ( 17580 PWs)   bands (ev):

  -102.6218-101.9971-101.5675 -60.2164 -60.0021 -59.7485 -59.6177 -59.5626
   -59.0886 -59.0361 -58.9935 -58.8091 -30.9283 -15.5156 -15.5084 -11.4077
   -11.3724 -11.0024  -6.9744  -6.9055  -6.7800  -6.5770  -6.5410  -6.5279
    -6.4265  -1.3853  -1.3743  -1.3545  -1.1919  -1.0218  -0.8183   3.2020
     3.8058   4.4559   4.6469   4.7228   5.2604   5.2925   5.3374   5.8059
     5.9404   5.9968   6.2334   6.3949   6.6241   6.7710   6.7980   7.0655
     8.1623   8.3291   8.3517   8.6709   8.7269   8.8098   8.8568   8.9126
     8.9399   9.0604   9.2139   9.3731   9.4045   9.4174   9.5964   9.7099
    11.5434  11.9206  12.6000  13.0130  13.3901  15.3686  15.5552  16.0744
    16.1482  16.2113  16.5656  17.1065  17.4658  17.8288

     occupation numbers 
     1.0000   1.0000   1.0000   1.0000   1.0000   1.0000   1.0000   1.0000
     1.0000   1.0000   1.0000   1.0000   1.0000   1.0000   1.0000   1.0000
     1.0000   1.0000   1.0000   1.0000   1.0000   1.0000   1.0000   1.0000
     1.0000   1.0000   1.0000   1.0000   1.0000   1.0000   1.0000   1.0000
     1.0000   1.0000   1.0000   1.0000   1.0000   1.0000   1.0000   1.0000
     1.0000   1.0000   1.0000   1.0000   1.0000   1.0000   1.0000   1.0000
     1.0000   1.0000   1.0000   1.0000   1.0000   1.0000   1.0001   1.0003
     1.0005   1.0036   1.0201   1.0315   1.0210   1.0141   0.7110   0.3679
    -0.0000  -0.0000  -0.0000  -0.0000  -0.0000  -0.0000  -0.0000  -0.0000
    -0.0000  -0.0000  -0.0000  -0.0000  -0.0000  -0.0000

          k =-0.4936-0.4843-0.1617 ( 17552 PWs)   bands (ev):

  -102.6218-101.9971-101.5675 -60.2164 -60.0021 -59.7485 -59.6177 -59.5626
   -59.0886 -59.0361 -58.9935 -58.8091 -30.9283 -15.5163 -15.5077 -11.4077
   -11.3724 -11.0024  -6.9744  -6.9075  -6.7799  -6.5770  -6.5411  -6.5142
    -6.4383  -1.3850  -1.3729  -1.3559  -1.1919  -0.9908  -0.8522   3.2171
     3.7836   4.4554   4.6863   4.7248   5.2530   5.2603   5.3478   5.8065
     5.8376   6.1392   6.2341   6.3568   6.5179   6.6271   6.7699   7.7590
     7.9776   8.3464   8.3560   8.3785   8.7471   8.8019   8.8048   8.8343
     8.8650   9.1653   9.2426   9.3718   9.3731   9.4283   9.5937   9.7071
    11.8234  11.9214  12.6000  13.0262  13.1893  15.4006  15.8316  15.9051
    16.1456  16.2189  16.5208  16.9320  16.9876  17.4514

     occupation numbers 
     1.0000   1.0000   1.0000   1.0000   1.0000   1.0000   1.0000   1.0000
     1.0000   1.0000   1.0000   1.0000   1.0000   1.0000   1.0000   1.0000
     1.0000   1.0000   1.0000   1.0000   1.0000   1.0000   1.0000   1.0000
     1.0000   1.0000   1.0000   1.0000   1.0000   1.0000   1.0000   1.0000
     1.0000   1.0000   1.0000   1.0000   1.0000   1.0000   1.0000   1.0000
     1.0000   1.0000   1.0000   1.0000   1.0000   1.0000   1.0000   1.0000
     1.0000   1.0000   1.0000   1.0000   1.0000   1.0000   1.0000   1.0001
     1.0001   1.0128   1.0250   1.0318   1.0315   1.0071   0.7185   0.3761
    -0.0000  -0.0000  -0.0000  -0.0000  -0.0000  -0.0000  -0.0000  -0.0000
    -0.0000  -0.0000  -0.0000  -0.0000  -0.0000  -0.0000

     the Fermi energy is     9.6668 ev

!    total energy              =   -1671.41718532 Ry
     estimated scf accuracy    <          9.1E-11 Ry
     smearing contrib. (-TS)   =      -0.00167213 Ry
     internal energy E=F+TS    =   -1671.41551319 Ry

     The total energy is F=E-TS. E is the sum of the following terms:
     one-electron contribution =   -1328.10171913 Ry
     hartree contribution      =     735.93036986 Ry
     xc contribution           =    -250.56046419 Ry
     ewald contribution        =    -828.78402867 Ry
     Hubbard energy            =       0.10032893 Ry

     total magnetization       =    -0.00 Bohr mag/cell
     absolute magnetization    =     0.78 Bohr mag/cell

     convergence has been achieved in  90 iterations

     negative rho (up, down):  8.700E-02 8.700E-02

     Forces acting on atoms (cartesian axes, Ry/au):

     atom    1 type  1   force =     0.00000000    0.00000000   -0.00000120
     atom    2 type  2   force =     0.00000000    0.00000000    0.00003117
     atom    3 type  2   force =     0.00000000    0.00000000   -0.00003079
     atom    4 type  3   force =     0.00000000    0.00000000   -0.00000116
     atom    5 type  4   force =     0.00000000    0.00000000    0.00003083
     atom    6 type  5   force =     0.00000000    0.00000000   -0.00002940
     atom    7 type  6   force =     0.00000000    0.00000000   -0.00014305
     atom    8 type  6   force =     0.00000000    0.00000000    0.00014191
     atom    9 type  6   force =     0.00000000    0.00000000   -0.00000706
     atom   10 type  6   force =     0.00000000    0.00000000    0.00000587
     atom   11 type  6   force =     0.00000000    0.00000000    0.00000073
     atom   12 type  6   force =     0.00000000    0.00000000    0.00028121
     atom   13 type  6   force =     0.00000000    0.00000000   -0.00027905
     The non-local contrib.  to forces
     atom    1 type  1   force =     0.00000000    0.00000000   -0.00000057
     atom    2 type  2   force =     0.00000000    0.00000000   -0.00351904
     atom    3 type  2   force =     0.00000000    0.00000000    0.00352016
     atom    4 type  3   force =     0.00000000    0.00000000   -0.00000286
     atom    5 type  4   force =     0.00000000    0.00000000    0.02726135
     atom    6 type  5   force =     0.00000000    0.00000000   -0.02727563
     atom    7 type  6   force =     0.00000000    0.00000000    0.13387142
     atom    8 type  6   force =     0.00000000    0.00000000   -0.13387724
     atom    9 type  6   force =     0.00000000    0.00000000    0.17857134
     atom   10 type  6   force =     0.00000000    0.00000000   -0.17857072
     atom   11 type  6   force =     0.00000000    0.00000000    0.00000187
     atom   12 type  6   force =     0.00000000    0.00000000   -0.49360358
     atom   13 type  6   force =     0.00000000    0.00000000    0.49359902
     The ionic contribution  to forces
     atom    1 type  1   force =    -0.00000000    0.00000000   -0.00032903
     atom    2 type  2   force =    -0.00000000    0.00000000  -14.69241587
     atom    3 type  2   force =    -0.00000000    0.00000000   14.69276927
     atom    4 type  3   force =     0.00000000   -0.00000000    0.00087718
     atom    5 type  4   force =     0.00000000   -0.00000000  -34.71386917
     atom    6 type  5   force =     0.00000000   -0.00000000   34.71270025
     atom    7 type  6   force =    -0.00000000   -0.00000000  -10.36516221
     atom    8 type  6   force =    -0.00000000   -0.00000000   10.36484529
     atom    9 type  6   force =     0.00000000    0.00000000  -10.56929385
     atom   10 type  6   force =     0.00000000    0.00000000   10.56892125
     atom   11 type  6   force =     0.00000000    0.00000000    0.00029027
     atom   12 type  6   force =     0.00000000   -0.00000000    2.26259264
     atom   13 type  6   force =     0.00000000   -0.00000000   -2.26192602
     The local contribution  to forces
     atom    1 type  1   force =    -0.00000000    0.00000000    0.00032749
     atom    2 type  2   force =    -0.00000000    0.00000000   14.69569766
     atom    3 type  2   force =    -0.00000000    0.00000000  -14.69605112
     atom    4 type  3   force =    -0.00000000    0.00000000   -0.00087446
     atom    5 type  4   force =    -0.00000000   -0.00000000   34.68284397
     atom    6 type  5   force =    -0.00000000    0.00000000  -34.68166088
     atom    7 type  6   force =    -0.00000000   -0.00000000   10.23153204
     atom    8 type  6   force =    -0.00000000    0.00000000  -10.23121104
     atom    9 type  6   force =    -0.00000000    0.00000000   10.39141960
     atom   10 type  6   force =    -0.00000000    0.00000000  -10.39104954
     atom   11 type  6   force =    -0.00000000    0.00000000   -0.00029086
     atom   12 type  6   force =    -0.00000000   -0.00000000   -1.77141418
     atom   13 type  6   force =     0.00000000    0.00000000    1.77075482
     The core correction contribution to forces
     atom    1 type  1   force =     0.00000000   -0.00000000    0.00000003
     atom    2 type  2   force =     0.00000000   -0.00000000    0.00050544
     atom    3 type  2   force =     0.00000000   -0.00000000   -0.00050545
     atom    4 type  3   force =    -0.00000000    0.00000000   -0.00000000
     atom    5 type  4   force =     0.00000000   -0.00000000   -0.00007503
     atom    6 type  5   force =    -0.00000000   -0.00000000    0.00007506
     atom    7 type  6   force =    -0.00000000   -0.00000000   -0.00054922
     atom    8 type  6   force =    -0.00000000    0.00000000    0.00054928
     atom    9 type  6   force =    -0.00000000    0.00000000   -0.00085045
     atom   10 type  6   force =    -0.00000000    0.00000000    0.00085045
     atom   11 type  6   force =    -0.00000000    0.00000000   -0.00000002
     atom   12 type  6   force =     0.00000000    0.00000000    0.00288538
     atom   13 type  6   force =    -0.00000000   -0.00000000   -0.00288537
     The Hubbard contrib.    to forces
     atom    1 type  1   force =     0.00000000    0.00000000    0.00000000
     atom    2 type  2   force =     0.00000000    0.00000000   -0.00023885
     atom    3 type  2   force =     0.00000000    0.00000000    0.00023887
     atom    4 type  3   force =     0.00000000    0.00000000    0.00000000
     atom    5 type  4   force =     0.00000000    0.00000000    0.00387483
     atom    6 type  5   force =     0.00000000    0.00000000   -0.00387517
     atom    7 type  6   force =     0.00000000    0.00000000    0.00016601
     atom    8 type  6   force =     0.00000000    0.00000000   -0.00016601
     atom    9 type  6   force =     0.00000000    0.00000000    0.00014737
     atom   10 type  6   force =     0.00000000    0.00000000   -0.00014738
     atom   11 type  6   force =     0.00000000    0.00000000    0.00000000
     atom   12 type  6   force =     0.00000000    0.00000000   -0.00018077
     atom   13 type  6   force =     0.00000000    0.00000000    0.00018080
     The SCF correction term to forces
     atom    1 type  1   force =    -0.00000000   -0.00000000    0.00000092
     atom    2 type  2   force =     0.00000000    0.00000000    0.00000189
     atom    3 type  2   force =    -0.00000000   -0.00000000   -0.00000247
     atom    4 type  3   force =    -0.00000000    0.00000000   -0.00000097
     atom    5 type  4   force =    -0.00000000   -0.00000000   -0.00000507
     atom    6 type  5   force =    -0.00000000    0.00000000    0.00000701
     atom    7 type  6   force =    -0.00000000    0.00000000   -0.00000104
     atom    8 type  6   force =    -0.00000000   -0.00000000    0.00000167
     atom    9 type  6   force =    -0.00000000    0.00000000   -0.00000102
     atom   10 type  6   force =    -0.00000000   -0.00000000    0.00000186
     atom   11 type  6   force =     0.00000000   -0.00000000   -0.00000047
     atom   12 type  6   force =    -0.00000000    0.00000000    0.00000177
     atom   13 type  6   force =     0.00000000   -0.00000000   -0.00000226

     Total force =     0.000449     Total SCF correction =     0.000010


     Computing stress (Cartesian axis) and pressure


     negative rho (up, down):  8.700E-02 8.700E-02
          total   stress  (Ry/bohr**3)                   (kbar)     P=        0.54
   0.00000357   0.00000000   0.00000000            0.53        0.00        0.00
   0.00000000   0.00000247   0.00000000            0.00        0.36        0.00
   0.00000000   0.00000000   0.00000497            0.00        0.00        0.73

     kinetic stress (kbar)  22182.34      0.00      0.00
                                0.00  22008.85      0.00
                                0.00      0.00  22284.96

     local   stress (kbar) -26164.42      0.00     -0.00
                                0.00 -43306.96     -0.00
                               -0.00     -0.00   6144.93

     nonloc. stress (kbar)  10996.01      0.00      0.00
                                0.00  10987.58      0.00
                                0.00      0.00  11099.42

     hartree stress (kbar)  32205.23     -0.00      0.00
                               -0.00  39900.53      0.00
                                0.00      0.00  16856.42

     exc-cor stress (kbar)   -468.50      0.00     -0.00
                                0.00   -463.41      0.00
                               -0.00      0.00   -472.71

     corecor stress (kbar)  -7539.87      0.00     -0.00
                                0.00  -7539.80      0.00
                               -0.00      0.00  -7540.70

     ewald   stress (kbar) -30895.36     -0.00      0.00
                               -0.00 -21268.42      0.00
                                0.00      0.00 -48022.91

     hubbard stress (kbar)   -314.90      0.00      0.00
                                0.00   -318.01      0.00
                                0.00      0.00   -348.67

     DFT-D   stress (kbar)      0.00      0.00      0.00
                                0.00      0.00      0.00
                                0.00      0.00      0.00

     XDM     stress (kbar)      0.00      0.00      0.00
                                0.00      0.00      0.00
                                0.00      0.00      0.00

     dft-nl  stress (kbar)      0.00      0.00      0.00
                                0.00      0.00      0.00
                                0.00      0.00      0.00

     TS-vdW  stress (kbar)      0.00      0.00      0.00
                                0.00      0.00      0.00
                                0.00      0.00      0.00

     MDB     stress (kbar)      0.00      0.00      0.00
                                0.00      0.00      0.00
                                0.00      0.00      0.00

     3D-RISM stress (kbar)      0.00      0.00      0.00
                                0.00      0.00      0.00
                                0.00      0.00      0.00


     Writing all to output data dir ./YBCO.vc-relax/YBCO.vc-relax.save/
 
     init_run     :     12.21s CPU     13.01s WALL (       2 calls)
     electrons    :   6739.78s CPU   7210.98s WALL (      17 calls)
     update_pot   :     17.40s CPU     17.61s WALL (      15 calls)
     forces       :    435.54s CPU    447.60s WALL (      17 calls)
     stress       :   1065.35s CPU   1102.68s WALL (      17 calls)

     Called by init_run:
     wfcinit      :      6.86s CPU      7.00s WALL (       2 calls)
     wfcinit:atom :      0.10s CPU      0.10s WALL (      32 calls)
     wfcinit:wfcr :      4.56s CPU      4.68s WALL (      32 calls)
     potinit      :      0.27s CPU      0.32s WALL (       2 calls)
     hinit0       :      2.78s CPU      2.83s WALL (       2 calls)

     Called by electrons:
     c_bands      :   3554.42s CPU   3598.87s WALL (     708 calls)
     sum_band     :   2247.05s CPU   2494.56s WALL (     708 calls)
     v_of_rho     :     96.69s CPU     97.80s WALL (     720 calls)
     v_h          :      4.21s CPU      4.31s WALL (     720 calls)
     v_xc         :     96.71s CPU     97.76s WALL (     754 calls)
     newd         :    832.75s CPU   1014.96s WALL (     720 calls)
     mix_rho      :     20.10s CPU     20.63s WALL (     708 calls)

     Called by c_bands:
     init_us_2    :     81.32s CPU     81.80s WALL (   24048 calls)
     init_us_2:cp :     81.21s CPU     81.74s WALL (   24048 calls)
     cegterg      :   3135.92s CPU   3178.76s WALL (   11328 calls)

     Called by sum_band:
     sum_band:wei :      1.01s CPU      1.03s WALL (     708 calls)
     sum_band:loo :    572.94s CPU    582.34s WALL (     708 calls)
     sum_band:buf :     12.79s CPU     12.83s WALL (   11328 calls)
     sum_band:ini :     38.04s CPU     38.10s WALL (   11328 calls)
     sum_band:cal :    131.31s CPU    133.16s WALL (   11328 calls)
     sum_band:bec :      0.96s CPU      0.96s WALL (   11328 calls)
     addusdens    :   1633.13s CPU   1863.80s WALL (     708 calls)
                                        0.00s GPU  (     708 calls)
     addusd:skk   :      2.53s CPU      2.68s WALL (    4248 calls)
                                        0.00s GPU  (    4248 calls)

     Called by *egterg:
     cdiaghg      :    108.70s CPU    109.11s WALL (   30209 calls)
     cegterg:over :    227.81s CPU    231.00s WALL (   19201 calls)
     cegterg:upda :    119.61s CPU    119.73s WALL (   19201 calls)
     cegterg:last :    240.84s CPU    241.07s WALL (   17354 calls)
     h_psi        :   1990.74s CPU   2025.30s WALL (   30561 calls)
     s_psi        :    304.70s CPU    306.23s WALL (   31921 calls)
     g_psi        :      8.81s CPU      8.83s WALL (   19201 calls)

     Called by h_psi:
     h_psi:calbec :    285.35s CPU    289.93s WALL (   30561 calls)
     vloc_psi     :   1324.87s CPU   1352.95s WALL (   30561 calls)
     add_vuspsi   :    282.08s CPU    282.41s WALL (   30561 calls)
     vhpsi        :     75.54s CPU     76.99s WALL (   30561 calls)

     General routines
     calbec       :    852.93s CPU    867.82s WALL (  428946 calls)
     fft          :     43.54s CPU     44.61s WALL (   18671 calls)
     ffts         :      1.65s CPU      1.68s WALL (    2856 calls)
     fftw         :   1282.06s CPU   1309.13s WALL ( 4613424 calls)
     interpolate  :      5.15s CPU      5.21s WALL (    1440 calls)
     davcio       :      0.00s CPU      0.00s WALL (      32 calls)
 
     Parallel routines

     Hubbard U routines
     new_ns       :     21.14s CPU     21.38s WALL (     708 calls)
     vhpsi        :     75.54s CPU     76.99s WALL (   30561 calls)
     force_hub    :    384.20s CPU    391.44s WALL (      17 calls)
                                        0.00s GPU  (      17 calls)
     stres_hub    :    615.85s CPU    624.01s WALL (      17 calls)
 
     PWSCF        :      2h18m CPU      2h27m WALL

 
   This run was terminated on:  12:29:35  16Dec2023            

=------------------------------------------------------------------------------=
   JOB DONE.
=------------------------------------------------------------------------------=
