
     Program PWSCF v.7.2 starts on 13Dec2023 at 22:23:57 

     This program is part of the open-source Quantum ESPRESSO suite
     for quantum simulation of materials; please cite
         "P. Giannozzi et al., J. Phys.:Condens. Matter 21 395502 (2009);
         "P. Giannozzi et al., J. Phys.:Condens. Matter 29 465901 (2017);
         "P. Giannozzi et al., J. Chem. Phys. 152 154105 (2020);
          URL http://www.quantum-espresso.org", 
     in publications or presentations arising from this work. More details at
     http://www.quantum-espresso.org/quote

     Parallel version (MPI), running on     4 processors

     MPI processes distributed on     1 nodes
     7636 MiB available memory on the printing compute node when the environment starts
 
     Waiting for input...
     Reading input from standard input

     Current dimensions of program PWSCF are:
     Max number of different atomic species (ntypx) = 10
     Max number of k-points (npk) =  40000
     Max angular momentum in pseudopotentials (lmaxx) =  4
 
     R & G space division:  proc/nbgrp/npool/nimage =       4
     Subspace diagonalization in iterative solution of the eigenvalue problem:
     a serial algorithm will be used

 
     Parallelization info
     --------------------
     sticks:   dense  smooth     PW     G-vecs:    dense   smooth      PW
     Min         756     377    107                95412    33713    5119
     Max         757     378    109                95423    33722    5122
     Sum        3027    1511    433               381679   134875   20483
 
     Using Slab Decomposition
 


     bravais-lattice index     =            8
     lattice parameter (alat)  =       7.2193  a.u.
     unit-cell volume          =    1170.3381 (a.u.)^3
     number of atoms/cell      =           13
     number of atomic types    =            4
     number of electrons       =       130.00
     number of Kohn-Sham states=           78
     kinetic-energy cutoff     =      90.0000  Ry
     charge density cutoff     =     720.0000  Ry
     scf convergence threshold =      1.0E-08
     mixing beta               =       0.1000
     number of iterations used =            8  plain     mixing
     energy convergence thresh.=      1.0E-04
     force convergence thresh. =      1.0E-03
     press convergence thresh. =      5.0E-01
     Exchange-correlation= SLA  PW   PBE  PBE
                           (   1   4   3   4   0   0   0)
     nstep                     =           50


     celldm(1)=   7.219321  celldm(2)=   1.017061  celldm(3)=   3.058265
     celldm(4)=   0.000000  celldm(5)=   0.000000  celldm(6)=   0.000000

     crystal axes: (cart. coord. in units of alat)
               a(1) = (   1.000000   0.000000   0.000000 )  
               a(2) = (   0.000000   1.017061   0.000000 )  
               a(3) = (   0.000000   0.000000   3.058265 )  

     reciprocal axes: (cart. coord. in units 2 pi/alat)
               b(1) = (  1.000000  0.000000  0.000000 )  
               b(2) = (  0.000000  0.983225  0.000000 )  
               b(3) = (  0.000000  0.000000  0.326983 )  


     PseudoPot. # 1 for Y  read from file:
     ~/q-e/pseudo/all_pbe_UPF_v1.5/y_pbe_v1.4.uspp.F.UPF
     MD5 check sum: Not computed, couldn't open file
     Pseudo is Ultrasoft + core correction, Zval = 11.0
     Generated by new atomic code, or converted to UPF format
     Using radial grid of  885 points,  6 beta functions with: 
                l(1) =   0
                l(2) =   0
                l(3) =   1
                l(4) =   1
                l(5) =   2
                l(6) =   2
     Q(r) pseudized with  8 coefficients,  rinner =    1.200   1.200   1.200
                                                       1.200   1.200

     PseudoPot. # 2 for Ba read from file:
     ~/q-e/pseudo/all_pbe_UPF_v1.5/ba_pbe_v1.uspp.F.UPF
     MD5 check sum: Not computed, couldn't open file
     Pseudo is Ultrasoft + core correction, Zval = 10.0
     Generated by new atomic code, or converted to UPF format
     Using radial grid of  907 points,  7 beta functions with: 
                l(1) =   0
                l(2) =   0
                l(3) =   1
                l(4) =   1
                l(5) =   2
                l(6) =   2
                l(7) =   3
     Q(r) pseudized with  6 coefficients,  rinner =    1.700   1.700   1.700
                                                       1.700   1.700   1.700
                                                       1.700

     PseudoPot. # 3 for Cu read from file:
     ~/q-e/pseudo/all_pbe_UPF_v1.5/cu_pbe_v1.2.uspp.F.UPF
     MD5 check sum: Not computed, couldn't open file
     Pseudo is Ultrasoft + core correction, Zval = 19.0
     Generated by new atomic code, or converted to UPF format
     Using radial grid of  867 points,  6 beta functions with: 
                l(1) =   0
                l(2) =   0
                l(3) =   1
                l(4) =   1
                l(5) =   2
                l(6) =   2
     Q(r) pseudized with  8 coefficients,  rinner =    1.150   1.150   1.150
                                                       1.150   1.150

     PseudoPot. # 4 for O  read from file:
     ~/q-e/pseudo/all_pbe_UPF_v1.5/o_pbe_v1.2.uspp.F.UPF
     MD5 check sum: Not computed, couldn't open file
     Pseudo is Ultrasoft + core correction, Zval =  6.0
     Generated by new atomic code, or converted to UPF format
     Using radial grid of  737 points,  5 beta functions with: 
                l(1) =   0
                l(2) =   0
                l(3) =   1
                l(4) =   1
                l(5) =   2
     Q(r) pseudized with  8 coefficients,  rinner =    0.900   0.900   0.900
                                                       0.900   0.900

     atomic species   valence    mass     pseudopotential
     Y                11.00    88.90584     Y ( 1.00)
     Ba               10.00   137.32700     Ba( 1.00)
     Cu               19.00    63.54600     Cu( 1.00)
     O                 6.00    15.99900     O ( 1.00)

      8 Sym. Ops., with inversion, found


                                    s                        frac. trans.

      isym =  1     identity                                     

 cryst.   s( 1) = (     1          0          0      )
                  (     0          1          0      )
                  (     0          0          1      )

 cart.    s( 1) = (  1.0000000  0.0000000  0.0000000 )
                  (  0.0000000  1.0000000  0.0000000 )
                  (  0.0000000  0.0000000  1.0000000 )


      isym =  2     180 deg rotation - cart. axis [0,0,1]        

 cryst.   s( 2) = (    -1          0          0      )
                  (     0         -1          0      )
                  (     0          0          1      )

 cart.    s( 2) = ( -1.0000000  0.0000000  0.0000000 )
                  (  0.0000000 -1.0000000  0.0000000 )
                  (  0.0000000  0.0000000  1.0000000 )


      isym =  3     180 deg rotation - cart. axis [0,1,0]        

 cryst.   s( 3) = (    -1          0          0      )
                  (     0          1          0      )
                  (     0          0         -1      )

 cart.    s( 3) = ( -1.0000000  0.0000000  0.0000000 )
                  (  0.0000000  1.0000000  0.0000000 )
                  (  0.0000000  0.0000000 -1.0000000 )


      isym =  4     180 deg rotation - cart. axis [1,0,0]        

 cryst.   s( 4) = (     1          0          0      )
                  (     0         -1          0      )
                  (     0          0         -1      )

 cart.    s( 4) = (  1.0000000  0.0000000  0.0000000 )
                  (  0.0000000 -1.0000000  0.0000000 )
                  (  0.0000000  0.0000000 -1.0000000 )


      isym =  5     inversion                                    

 cryst.   s( 5) = (    -1          0          0      )
                  (     0         -1          0      )
                  (     0          0         -1      )

 cart.    s( 5) = ( -1.0000000  0.0000000  0.0000000 )
                  (  0.0000000 -1.0000000  0.0000000 )
                  (  0.0000000  0.0000000 -1.0000000 )


      isym =  6     inv. 180 deg rotation - cart. axis [0,0,1]   

 cryst.   s( 6) = (     1          0          0      )
                  (     0          1          0      )
                  (     0          0         -1      )

 cart.    s( 6) = (  1.0000000  0.0000000  0.0000000 )
                  (  0.0000000  1.0000000  0.0000000 )
                  (  0.0000000  0.0000000 -1.0000000 )


      isym =  7     inv. 180 deg rotation - cart. axis [0,1,0]   

 cryst.   s( 7) = (     1          0          0      )
                  (     0         -1          0      )
                  (     0          0          1      )

 cart.    s( 7) = (  1.0000000  0.0000000  0.0000000 )
                  (  0.0000000 -1.0000000  0.0000000 )
                  (  0.0000000  0.0000000  1.0000000 )


      isym =  8     inv. 180 deg rotation - cart. axis [1,0,0]   

 cryst.   s( 8) = (    -1          0          0      )
                  (     0          1          0      )
                  (     0          0          1      )

 cart.    s( 8) = ( -1.0000000  0.0000000  0.0000000 )
                  (  0.0000000  1.0000000  0.0000000 )
                  (  0.0000000  0.0000000  1.0000000 )


     point group D_2h (mmm) 
     there are  8 classes
     the character table:

       E     C2    C2'   C2''  i     s_v   s_v'  s_v''
A_g    1.00  1.00  1.00  1.00  1.00  1.00  1.00  1.00
B_1g   1.00  1.00 -1.00 -1.00  1.00  1.00 -1.00 -1.00
B_2g   1.00 -1.00  1.00 -1.00  1.00 -1.00  1.00 -1.00
B_3g   1.00 -1.00 -1.00  1.00  1.00 -1.00 -1.00  1.00
A_u    1.00  1.00  1.00  1.00 -1.00 -1.00 -1.00 -1.00
B_1u   1.00  1.00 -1.00 -1.00 -1.00 -1.00  1.00  1.00
B_2u   1.00 -1.00  1.00 -1.00 -1.00  1.00 -1.00  1.00
B_3u   1.00 -1.00 -1.00  1.00 -1.00  1.00  1.00 -1.00

     the symmetry operations in each class and the name of the first element:

     E        1
          identity                                               
     C2       2
          180 deg rotation - cart. axis [0,0,1]                  
     C2'      4
          180 deg rotation - cart. axis [1,0,0]                  
     C2''     3
          180 deg rotation - cart. axis [0,1,0]                  
     i        5
          inversion                                              
     s_v      6
          inv. 180 deg rotation - cart. axis [0,0,1]             
     s_v'     8
          inv. 180 deg rotation - cart. axis [1,0,0]             
     s_v''    7
          inv. 180 deg rotation - cart. axis [0,1,0]             

   Cartesian axes

     site n.     atom                  positions (alat units)
         1        Y      tau(   1) = (   0.5000000   0.5085307   1.5291325  )
         2        Ba     tau(   2) = (   0.5000000   0.5085307   0.5625067  )
         3        Ba     tau(   3) = (   0.5000000   0.5085307   2.4957584  )
         4        Cu     tau(   4) = (   0.0000000   0.0000000   0.0000000  )
         5        Cu     tau(   5) = (   0.0000000   0.0000000   1.0857147  )
         6        Cu     tau(   6) = (   0.0000000   0.0000000   1.9725504  )
         7        O      tau(   7) = (   0.5000000   0.0000000   1.1566053  )
         8        O      tau(   8) = (   0.5000000   0.0000000   1.9016598  )
         9        O      tau(   9) = (   0.0000000   0.5085307   1.1527518  )
        10        O      tau(  10) = (   0.0000000   0.5085307   1.9055132  )
        11        O      tau(  11) = (   0.0000000   0.5085307   0.0000000  )
        12        O      tau(  12) = (   0.0000000   0.0000000   0.4844292  )
        13        O      tau(  13) = (   0.0000000   0.0000000   2.5738359  )

   Crystallographic axes

     site n.     atom                  positions (cryst. coord.)
         1        Y      tau(   1) = (  0.5000000  0.5000000  0.5000000  )
         2        Ba     tau(   2) = (  0.5000000  0.5000000  0.1839300  )
         3        Ba     tau(   3) = (  0.5000000  0.5000000  0.8160700  )
         4        Cu     tau(   4) = (  0.0000000  0.0000000  0.0000000  )
         5        Cu     tau(   5) = (  0.0000000  0.0000000  0.3550100  )
         6        Cu     tau(   6) = (  0.0000000  0.0000000  0.6449900  )
         7        O      tau(   7) = (  0.5000000  0.0000000  0.3781900  )
         8        O      tau(   8) = (  0.5000000  0.0000000  0.6218100  )
         9        O      tau(   9) = (  0.0000000  0.5000000  0.3769300  )
        10        O      tau(  10) = (  0.0000000  0.5000000  0.6230700  )
        11        O      tau(  11) = (  0.0000000  0.5000000  0.0000000  )
        12        O      tau(  12) = (  0.0000000  0.0000000  0.1584000  )
        13        O      tau(  13) = (  0.0000000  0.0000000  0.8416000  )

     number of k points=     8  Methfessel-Paxton smearing, width (Ry)=  0.0100
                       cart. coord. in units 2pi/alat
        k(    1) = (   0.0000000   0.0000000   0.0000000), wk =   0.2500000
        k(    2) = (   0.0000000   0.0000000  -0.1634914), wk =   0.2500000
        k(    3) = (   0.0000000  -0.4916124   0.0000000), wk =   0.2500000
        k(    4) = (   0.0000000  -0.4916124  -0.1634914), wk =   0.2500000
        k(    5) = (  -0.5000000   0.0000000   0.0000000), wk =   0.2500000
        k(    6) = (  -0.5000000   0.0000000  -0.1634914), wk =   0.2500000
        k(    7) = (  -0.5000000  -0.4916124   0.0000000), wk =   0.2500000
        k(    8) = (  -0.5000000  -0.4916124  -0.1634914), wk =   0.2500000

                       cryst. coord.
        k(    1) = (   0.0000000   0.0000000   0.0000000), wk =   0.2500000
        k(    2) = (   0.0000000   0.0000000  -0.5000000), wk =   0.2500000
        k(    3) = (   0.0000000  -0.5000000   0.0000000), wk =   0.2500000
        k(    4) = (   0.0000000  -0.5000000  -0.5000000), wk =   0.2500000
        k(    5) = (  -0.5000000   0.0000000   0.0000000), wk =   0.2500000
        k(    6) = (  -0.5000000   0.0000000  -0.5000000), wk =   0.2500000
        k(    7) = (  -0.5000000  -0.5000000   0.0000000), wk =   0.2500000
        k(    8) = (  -0.5000000  -0.5000000  -0.5000000), wk =   0.2500000

     Dense  grid:   381679 G-vectors     FFT dimensions: (  64,  64, 192)

     Smooth grid:   134875 G-vectors     FFT dimensions: (  45,  45, 135)

     Dynamical RAM for                 wfc:       5.02 MB

     Dynamical RAM for     wfc (w. buffer):      45.18 MB

     Dynamical RAM for           str. fact:       5.82 MB

     Dynamical RAM for           local pot:       0.00 MB

     Dynamical RAM for          nlocal pot:      13.71 MB

     Dynamical RAM for                qrad:      32.14 MB

     Dynamical RAM for          rho,v,vnew:       8.87 MB

     Dynamical RAM for               rhoin:       2.96 MB

     Dynamical RAM for            rho*nmix:      23.30 MB

     Dynamical RAM for           G-vectors:       5.72 MB

     Dynamical RAM for          h,s,v(r/c):       1.11 MB

     Dynamical RAM for          <psi|beta>:       0.25 MB

     Dynamical RAM for                 psi:      10.04 MB

     Dynamical RAM for                hpsi:      10.04 MB

     Dynamical RAM for                spsi:      10.04 MB

     Dynamical RAM for      wfcinit/wfcrot:      13.90 MB

     Dynamical RAM for           addusdens:     522.72 MB

     Dynamical RAM for          addusforce:     540.97 MB

     Dynamical RAM for         addusstress:     551.84 MB

     Estimated static dynamical RAM per process >     129.18 MB

     Estimated max dynamical RAM per process >     704.32 MB

     Estimated total dynamical RAM >       2.75 GB

     Initial potential from superposition of free atoms

     starting charge     126.9655, renormalised to     130.0000

     negative rho (up, down):  1.933E-01 0.000E+00
     Starting wfcs are  106 randomized atomic wfcs

     total cpu time spent up to now is        3.0 secs

     Self-consistent Calculation

     iteration #  1     ecut=    90.00 Ry     beta= 0.10
     Davidson diagonalization with overlap

---- Real-time Memory Report at c_bands before calling an iterative solver
           693 MiB given to the printing process from OS
             0 MiB allocation reported by mallinfo(arena+hblkhd)
          6900 MiB available memory on the node where the printing process lives
------------------
     ethr =  1.00E-02,  avg # of iterations =  2.0

     negative rho (up, down):  1.912E-01 0.000E+00

     total cpu time spent up to now is        7.5 secs

     total energy              =   -1671.57933407 Ry
     estimated scf accuracy    <       2.83215435 Ry

     iteration #  2     ecut=    90.00 Ry     beta= 0.10
     Davidson diagonalization with overlap

---- Real-time Memory Report at c_bands before calling an iterative solver
           802 MiB given to the printing process from OS
             0 MiB allocation reported by mallinfo(arena+hblkhd)
          6815 MiB available memory on the node where the printing process lives
------------------
     ethr =  2.18E-03,  avg # of iterations =  1.0

     negative rho (up, down):  1.904E-01 0.000E+00

     total cpu time spent up to now is       11.6 secs

     total energy              =   -1671.53180899 Ry
     estimated scf accuracy    <       4.12103032 Ry

     iteration #  3     ecut=    90.00 Ry     beta= 0.10
     Davidson diagonalization with overlap

---- Real-time Memory Report at c_bands before calling an iterative solver
           804 MiB given to the printing process from OS
             0 MiB allocation reported by mallinfo(arena+hblkhd)
          6810 MiB available memory on the node where the printing process lives
------------------
     ethr =  2.18E-03,  avg # of iterations =  1.0

     negative rho (up, down):  1.850E-01 0.000E+00

     total cpu time spent up to now is       15.5 secs

     total energy              =   -1671.34169397 Ry
     estimated scf accuracy    <       1.26169845 Ry

     iteration #  4     ecut=    90.00 Ry     beta= 0.10
     Davidson diagonalization with overlap

---- Real-time Memory Report at c_bands before calling an iterative solver
           805 MiB given to the printing process from OS
             0 MiB allocation reported by mallinfo(arena+hblkhd)
          6807 MiB available memory on the node where the printing process lives
------------------
     ethr =  9.71E-04,  avg # of iterations =  2.0

     negative rho (up, down):  1.851E-01 0.000E+00

     total cpu time spent up to now is       20.0 secs

     total energy              =   -1671.64345193 Ry
     estimated scf accuracy    <       1.72272457 Ry

     iteration #  5     ecut=    90.00 Ry     beta= 0.10
     Davidson diagonalization with overlap

---- Real-time Memory Report at c_bands before calling an iterative solver
           806 MiB given to the printing process from OS
             0 MiB allocation reported by mallinfo(arena+hblkhd)
          6797 MiB available memory on the node where the printing process lives
------------------
     ethr =  9.71E-04,  avg # of iterations =  1.0

     negative rho (up, down):  1.852E-01 0.000E+00

     total cpu time spent up to now is       24.6 secs

     total energy              =   -1671.51133650 Ry
     estimated scf accuracy    <       1.64928170 Ry

     iteration #  6     ecut=    90.00 Ry     beta= 0.10
     Davidson diagonalization with overlap

---- Real-time Memory Report at c_bands before calling an iterative solver
           807 MiB given to the printing process from OS
             0 MiB allocation reported by mallinfo(arena+hblkhd)
          6791 MiB available memory on the node where the printing process lives
------------------
     ethr =  9.71E-04,  avg # of iterations =  1.0

     negative rho (up, down):  1.830E-01 0.000E+00

     total cpu time spent up to now is       29.3 secs

     total energy              =   -1671.48466417 Ry
     estimated scf accuracy    <       0.27505176 Ry

     iteration #  7     ecut=    90.00 Ry     beta= 0.10
     Davidson diagonalization with overlap

---- Real-time Memory Report at c_bands before calling an iterative solver
           808 MiB given to the printing process from OS
             0 MiB allocation reported by mallinfo(arena+hblkhd)
          6785 MiB available memory on the node where the printing process lives
------------------
     ethr =  2.12E-04,  avg # of iterations =  2.0

     negative rho (up, down):  1.781E-01 0.000E+00

     total cpu time spent up to now is       34.3 secs

     total energy              =   -1671.56889990 Ry
     estimated scf accuracy    <       0.57348219 Ry

     iteration #  8     ecut=    90.00 Ry     beta= 0.10
     Davidson diagonalization with overlap

---- Real-time Memory Report at c_bands before calling an iterative solver
           811 MiB given to the printing process from OS
             0 MiB allocation reported by mallinfo(arena+hblkhd)
          6778 MiB available memory on the node where the printing process lives
------------------
     ethr =  2.12E-04,  avg # of iterations =  3.1

     negative rho (up, down):  1.776E-01 0.000E+00

     total cpu time spent up to now is       39.5 secs

     total energy              =   -1671.60879859 Ry
     estimated scf accuracy    <       0.70534196 Ry

     iteration #  9     ecut=    90.00 Ry     beta= 0.10
     Davidson diagonalization with overlap

---- Real-time Memory Report at c_bands before calling an iterative solver
           812 MiB given to the printing process from OS
             0 MiB allocation reported by mallinfo(arena+hblkhd)
          6765 MiB available memory on the node where the printing process lives
------------------
     ethr =  2.12E-04,  avg # of iterations =  1.0

     negative rho (up, down):  1.772E-01 0.000E+00

     total cpu time spent up to now is       44.1 secs

     total energy              =   -1671.60343882 Ry
     estimated scf accuracy    <       0.89241881 Ry

     iteration # 10     ecut=    90.00 Ry     beta= 0.10
     Davidson diagonalization with overlap

---- Real-time Memory Report at c_bands before calling an iterative solver
           813 MiB given to the printing process from OS
             0 MiB allocation reported by mallinfo(arena+hblkhd)
          6761 MiB available memory on the node where the printing process lives
------------------
     ethr =  2.12E-04,  avg # of iterations =  1.0

     negative rho (up, down):  1.751E-01 0.000E+00

     total cpu time spent up to now is       48.8 secs

     total energy              =   -1671.50830500 Ry
     estimated scf accuracy    <       0.86168508 Ry

     iteration # 11     ecut=    90.00 Ry     beta= 0.10
     Davidson diagonalization with overlap

---- Real-time Memory Report at c_bands before calling an iterative solver
           813 MiB given to the printing process from OS
             0 MiB allocation reported by mallinfo(arena+hblkhd)
          6763 MiB available memory on the node where the printing process lives
------------------
     ethr =  2.12E-04,  avg # of iterations =  2.0

     negative rho (up, down):  1.752E-01 0.000E+00

     total cpu time spent up to now is       53.9 secs

     total energy              =   -1671.52487820 Ry
     estimated scf accuracy    <       0.35466399 Ry

     iteration # 12     ecut=    90.00 Ry     beta= 0.10
     Davidson diagonalization with overlap

---- Real-time Memory Report at c_bands before calling an iterative solver
           813 MiB given to the printing process from OS
             0 MiB allocation reported by mallinfo(arena+hblkhd)
          6761 MiB available memory on the node where the printing process lives
------------------
     ethr =  2.12E-04,  avg # of iterations =  1.1

     negative rho (up, down):  1.759E-01 0.000E+00

     total cpu time spent up to now is       58.6 secs

     total energy              =   -1671.54363083 Ry
     estimated scf accuracy    <       0.30595358 Ry

     iteration # 13     ecut=    90.00 Ry     beta= 0.10
     Davidson diagonalization with overlap

---- Real-time Memory Report at c_bands before calling an iterative solver
           813 MiB given to the printing process from OS
             0 MiB allocation reported by mallinfo(arena+hblkhd)
          6762 MiB available memory on the node where the printing process lives
------------------
     ethr =  2.12E-04,  avg # of iterations =  1.2

     negative rho (up, down):  1.745E-01 0.000E+00

     total cpu time spent up to now is       63.4 secs

     total energy              =   -1671.50944082 Ry
     estimated scf accuracy    <       0.44437395 Ry

     iteration # 14     ecut=    90.00 Ry     beta= 0.10
     Davidson diagonalization with overlap

---- Real-time Memory Report at c_bands before calling an iterative solver
           813 MiB given to the printing process from OS
             0 MiB allocation reported by mallinfo(arena+hblkhd)
          6762 MiB available memory on the node where the printing process lives
------------------
     ethr =  2.12E-04,  avg # of iterations =  2.1

     negative rho (up, down):  1.748E-01 0.000E+00

     total cpu time spent up to now is       68.2 secs

     total energy              =   -1671.48484566 Ry
     estimated scf accuracy    <       0.20914490 Ry

     iteration # 15     ecut=    90.00 Ry     beta= 0.10
     Davidson diagonalization with overlap

---- Real-time Memory Report at c_bands before calling an iterative solver
           813 MiB given to the printing process from OS
             0 MiB allocation reported by mallinfo(arena+hblkhd)
          6758 MiB available memory on the node where the printing process lives
------------------
     ethr =  1.61E-04,  avg # of iterations =  2.4

     negative rho (up, down):  1.740E-01 0.000E+00

     total cpu time spent up to now is       73.1 secs

     total energy              =   -1671.51820116 Ry
     estimated scf accuracy    <       0.18481333 Ry

     iteration # 16     ecut=    90.00 Ry     beta= 0.10
     Davidson diagonalization with overlap

---- Real-time Memory Report at c_bands before calling an iterative solver
           813 MiB given to the printing process from OS
             0 MiB allocation reported by mallinfo(arena+hblkhd)
          6764 MiB available memory on the node where the printing process lives
------------------
     ethr =  1.42E-04,  avg # of iterations =  2.9

     negative rho (up, down):  1.741E-01 0.000E+00

     total cpu time spent up to now is       78.2 secs

     total energy              =   -1671.47120702 Ry
     estimated scf accuracy    <       0.59184667 Ry

     iteration # 17     ecut=    90.00 Ry     beta= 0.10
     Davidson diagonalization with overlap

---- Real-time Memory Report at c_bands before calling an iterative solver
           813 MiB given to the printing process from OS
             0 MiB allocation reported by mallinfo(arena+hblkhd)
          6762 MiB available memory on the node where the printing process lives
------------------
     ethr =  1.42E-04,  avg # of iterations =  1.0
     Minimization algorithm failed to find Fermi energy: reverting to bisection
     Possible cause: smearing is larger than the electronic band-gap.

     negative rho (up, down):  1.747E-01 0.000E+00

     total cpu time spent up to now is       83.0 secs

     total energy              =   -1671.51149107 Ry
     estimated scf accuracy    <       0.07585255 Ry

     iteration # 18     ecut=    90.00 Ry     beta= 0.10
     Davidson diagonalization with overlap

---- Real-time Memory Report at c_bands before calling an iterative solver
           813 MiB given to the printing process from OS
             0 MiB allocation reported by mallinfo(arena+hblkhd)
          6762 MiB available memory on the node where the printing process lives
------------------
     ethr =  5.83E-05,  avg # of iterations =  1.0
     Minimization algorithm failed to find Fermi energy: reverting to bisection
     Possible cause: smearing is larger than the electronic band-gap.

     negative rho (up, down):  1.746E-01 0.000E+00

     total cpu time spent up to now is       87.8 secs

     total energy              =   -1671.50739449 Ry
     estimated scf accuracy    <       0.11597317 Ry

     iteration # 19     ecut=    90.00 Ry     beta= 0.10
     Davidson diagonalization with overlap

---- Real-time Memory Report at c_bands before calling an iterative solver
           813 MiB given to the printing process from OS
             0 MiB allocation reported by mallinfo(arena+hblkhd)
          6762 MiB available memory on the node where the printing process lives
------------------
     ethr =  5.83E-05,  avg # of iterations =  1.0

     negative rho (up, down):  1.745E-01 0.000E+00

     total cpu time spent up to now is       92.6 secs

     total energy              =   -1671.50343860 Ry
     estimated scf accuracy    <       0.05072196 Ry

     iteration # 20     ecut=    90.00 Ry     beta= 0.10
     Davidson diagonalization with overlap

---- Real-time Memory Report at c_bands before calling an iterative solver
           813 MiB given to the printing process from OS
             0 MiB allocation reported by mallinfo(arena+hblkhd)
          6762 MiB available memory on the node where the printing process lives
------------------
     ethr =  3.90E-05,  avg # of iterations =  1.0

     negative rho (up, down):  1.746E-01 0.000E+00

     total cpu time spent up to now is       97.4 secs

     total energy              =   -1671.50396305 Ry
     estimated scf accuracy    <       0.03484729 Ry

     iteration # 21     ecut=    90.00 Ry     beta= 0.10
     Davidson diagonalization with overlap

---- Real-time Memory Report at c_bands before calling an iterative solver
           813 MiB given to the printing process from OS
             0 MiB allocation reported by mallinfo(arena+hblkhd)
          6761 MiB available memory on the node where the printing process lives
------------------
     ethr =  2.68E-05,  avg # of iterations =  1.0

     negative rho (up, down):  1.742E-01 0.000E+00

     total cpu time spent up to now is      102.1 secs

     total energy              =   -1671.50687015 Ry
     estimated scf accuracy    <       0.14388034 Ry

     iteration # 22     ecut=    90.00 Ry     beta= 0.10
     Davidson diagonalization with overlap

---- Real-time Memory Report at c_bands before calling an iterative solver
           813 MiB given to the printing process from OS
             0 MiB allocation reported by mallinfo(arena+hblkhd)
          6759 MiB available memory on the node where the printing process lives
------------------
     ethr =  2.68E-05,  avg # of iterations =  1.0
     Minimization algorithm failed to find Fermi energy: reverting to bisection
     Possible cause: smearing is larger than the electronic band-gap.

     negative rho (up, down):  1.731E-01 0.000E+00

     total cpu time spent up to now is      106.8 secs

     total energy              =   -1671.49859916 Ry
     estimated scf accuracy    <       0.08209783 Ry

     iteration # 23     ecut=    90.00 Ry     beta= 0.10
     Davidson diagonalization with overlap

---- Real-time Memory Report at c_bands before calling an iterative solver
           813 MiB given to the printing process from OS
             0 MiB allocation reported by mallinfo(arena+hblkhd)
          6756 MiB available memory on the node where the printing process lives
------------------
     ethr =  2.68E-05,  avg # of iterations =  1.9

     negative rho (up, down):  1.730E-01 0.000E+00

     total cpu time spent up to now is      111.8 secs

     total energy              =   -1671.50483865 Ry
     estimated scf accuracy    <       0.05732905 Ry

     iteration # 24     ecut=    90.00 Ry     beta= 0.10
     Davidson diagonalization with overlap

---- Real-time Memory Report at c_bands before calling an iterative solver
           813 MiB given to the printing process from OS
             0 MiB allocation reported by mallinfo(arena+hblkhd)
          6759 MiB available memory on the node where the printing process lives
------------------
     ethr =  2.68E-05,  avg # of iterations =  1.0

     negative rho (up, down):  1.729E-01 0.000E+00

     total cpu time spent up to now is      116.5 secs

     total energy              =   -1671.50456259 Ry
     estimated scf accuracy    <       0.01668366 Ry

     iteration # 25     ecut=    90.00 Ry     beta= 0.10
     Davidson diagonalization with overlap

---- Real-time Memory Report at c_bands before calling an iterative solver
           813 MiB given to the printing process from OS
             0 MiB allocation reported by mallinfo(arena+hblkhd)
          6759 MiB available memory on the node where the printing process lives
------------------
     ethr =  1.28E-05,  avg # of iterations =  1.0

     negative rho (up, down):  1.728E-01 0.000E+00

     total cpu time spent up to now is      121.3 secs

     total energy              =   -1671.50494393 Ry
     estimated scf accuracy    <       0.00050253 Ry

     iteration # 26     ecut=    90.00 Ry     beta= 0.10
     Davidson diagonalization with overlap

---- Real-time Memory Report at c_bands before calling an iterative solver
           813 MiB given to the printing process from OS
             0 MiB allocation reported by mallinfo(arena+hblkhd)
          6755 MiB available memory on the node where the printing process lives
------------------
     ethr =  3.87E-07,  avg # of iterations =  3.0
     Minimization algorithm failed to find Fermi energy: reverting to bisection
     Possible cause: smearing is larger than the electronic band-gap.

     negative rho (up, down):  1.727E-01 0.000E+00

     total cpu time spent up to now is      126.4 secs

     total energy              =   -1671.50494062 Ry
     estimated scf accuracy    <       0.00015660 Ry

     iteration # 27     ecut=    90.00 Ry     beta= 0.10
     Davidson diagonalization with overlap

---- Real-time Memory Report at c_bands before calling an iterative solver
           813 MiB given to the printing process from OS
             0 MiB allocation reported by mallinfo(arena+hblkhd)
          6759 MiB available memory on the node where the printing process lives
------------------
     ethr =  1.20E-07,  avg # of iterations =  2.0

     negative rho (up, down):  1.726E-01 0.000E+00

     total cpu time spent up to now is      131.6 secs

     total energy              =   -1671.50495781 Ry
     estimated scf accuracy    <       0.00008696 Ry

     iteration # 28     ecut=    90.00 Ry     beta= 0.10
     Davidson diagonalization with overlap

---- Real-time Memory Report at c_bands before calling an iterative solver
           813 MiB given to the printing process from OS
             0 MiB allocation reported by mallinfo(arena+hblkhd)
          6758 MiB available memory on the node where the printing process lives
------------------
     ethr =  6.69E-08,  avg # of iterations =  1.9
     Minimization algorithm failed to find Fermi energy: reverting to bisection
     Possible cause: smearing is larger than the electronic band-gap.

     negative rho (up, down):  1.726E-01 0.000E+00

     total cpu time spent up to now is      136.5 secs

     total energy              =   -1671.50496251 Ry
     estimated scf accuracy    <       0.00002341 Ry

     iteration # 29     ecut=    90.00 Ry     beta= 0.10
     Davidson diagonalization with overlap

---- Real-time Memory Report at c_bands before calling an iterative solver
           813 MiB given to the printing process from OS
             0 MiB allocation reported by mallinfo(arena+hblkhd)
          6758 MiB available memory on the node where the printing process lives
------------------
     ethr =  1.80E-08,  avg # of iterations =  1.0
     Minimization algorithm failed to find Fermi energy: reverting to bisection
     Possible cause: smearing is larger than the electronic band-gap.

     negative rho (up, down):  1.726E-01 0.000E+00

     total cpu time spent up to now is      141.2 secs

     total energy              =   -1671.50496389 Ry
     estimated scf accuracy    <       0.00000996 Ry

     iteration # 30     ecut=    90.00 Ry     beta= 0.10
     Davidson diagonalization with overlap

---- Real-time Memory Report at c_bands before calling an iterative solver
           813 MiB given to the printing process from OS
             0 MiB allocation reported by mallinfo(arena+hblkhd)
          6758 MiB available memory on the node where the printing process lives
------------------
     ethr =  7.66E-09,  avg # of iterations =  1.8
     Minimization algorithm failed to find Fermi energy: reverting to bisection
     Possible cause: smearing is larger than the electronic band-gap.

     negative rho (up, down):  1.726E-01 0.000E+00

     total cpu time spent up to now is      146.2 secs

     total energy              =   -1671.50496433 Ry
     estimated scf accuracy    <       0.00004060 Ry

     iteration # 31     ecut=    90.00 Ry     beta= 0.10
     Davidson diagonalization with overlap

---- Real-time Memory Report at c_bands before calling an iterative solver
           813 MiB given to the printing process from OS
             0 MiB allocation reported by mallinfo(arena+hblkhd)
          6753 MiB available memory on the node where the printing process lives
------------------
     ethr =  7.66E-09,  avg # of iterations =  1.0
     Minimization algorithm failed to find Fermi energy: reverting to bisection
     Possible cause: smearing is larger than the electronic band-gap.

     negative rho (up, down):  1.726E-01 0.000E+00

     total cpu time spent up to now is      151.0 secs

     total energy              =   -1671.50496681 Ry
     estimated scf accuracy    <       0.00005887 Ry

     iteration # 32     ecut=    90.00 Ry     beta= 0.10
     Davidson diagonalization with overlap

---- Real-time Memory Report at c_bands before calling an iterative solver
           813 MiB given to the printing process from OS
             0 MiB allocation reported by mallinfo(arena+hblkhd)
          6756 MiB available memory on the node where the printing process lives
------------------
     ethr =  7.66E-09,  avg # of iterations =  1.0

     negative rho (up, down):  1.726E-01 0.000E+00

     total cpu time spent up to now is      155.7 secs

     total energy              =   -1671.50496889 Ry
     estimated scf accuracy    <       0.00000024 Ry

     iteration # 33     ecut=    90.00 Ry     beta= 0.10
     Davidson diagonalization with overlap

---- Real-time Memory Report at c_bands before calling an iterative solver
           813 MiB given to the printing process from OS
             0 MiB allocation reported by mallinfo(arena+hblkhd)
          6757 MiB available memory on the node where the printing process lives
------------------
     ethr =  1.88E-10,  avg # of iterations =  2.5

     negative rho (up, down):  1.726E-01 0.000E+00

     total cpu time spent up to now is      161.0 secs

     total energy              =   -1671.50496979 Ry
     estimated scf accuracy    <       0.00000010 Ry

     iteration # 34     ecut=    90.00 Ry     beta= 0.10
     Davidson diagonalization with overlap

---- Real-time Memory Report at c_bands before calling an iterative solver
           813 MiB given to the printing process from OS
             0 MiB allocation reported by mallinfo(arena+hblkhd)
          6749 MiB available memory on the node where the printing process lives
------------------
     ethr =  7.92E-11,  avg # of iterations =  2.0

     negative rho (up, down):  1.726E-01 0.000E+00

     total cpu time spent up to now is      166.0 secs

     total energy              =   -1671.50497052 Ry
     estimated scf accuracy    <       0.00000003 Ry

     iteration # 35     ecut=    90.00 Ry     beta= 0.10
     Davidson diagonalization with overlap

---- Real-time Memory Report at c_bands before calling an iterative solver
           813 MiB given to the printing process from OS
             0 MiB allocation reported by mallinfo(arena+hblkhd)
          6747 MiB available memory on the node where the printing process lives
------------------
     ethr =  2.66E-11,  avg # of iterations =  2.2

     negative rho (up, down):  1.726E-01 0.000E+00

     total cpu time spent up to now is      171.1 secs

     total energy              =   -1671.50497110 Ry
     estimated scf accuracy    <       0.00000001 Ry

     iteration # 36     ecut=    90.00 Ry     beta= 0.10
     Davidson diagonalization with overlap

---- Real-time Memory Report at c_bands before calling an iterative solver
           813 MiB given to the printing process from OS
             0 MiB allocation reported by mallinfo(arena+hblkhd)
          6745 MiB available memory on the node where the printing process lives
------------------
     ethr =  1.03E-11,  avg # of iterations =  2.0

     negative rho (up, down):  1.726E-01 0.000E+00

     total cpu time spent up to now is      176.3 secs

     End of self-consistent calculation

          k = 0.0000 0.0000 0.0000 ( 16893 PWs)   bands (ev):

  -102.0888-101.6333-101.6333 -59.7072 -59.4946 -59.1773 -59.1656 -59.1655
   -59.1086 -59.1086 -58.7916 -58.7910 -30.1790 -15.0265 -15.0039 -10.6976
   -10.1825 -10.1634  -7.3969  -6.7178  -6.4542  -6.1910  -6.0237  -5.9208
    -5.7888  -0.2282  -0.1861  -0.0600  -0.0365   0.0760   0.1179   5.6410
     5.9892   6.0047   6.1413   6.2866   6.3277   7.0239   7.1387   7.1842
     7.2260   7.3442   8.0140   8.0190   8.1385   8.1525   8.1793   8.3453
     8.3596   8.4227   8.4315   8.4875   8.5146   8.8852   8.9232   9.1654
     9.1880   9.2559   9.4110   9.4143   9.6946   9.8542   9.8902  10.0706
    10.0961  10.1045  10.1069  13.3450  13.9840  14.7908  14.9405  15.7046
    16.1038  16.3874  16.7784  17.1365  17.4949  17.7435

     occupation numbers 
     1.0000   1.0000   1.0000   1.0000   1.0000   1.0000   1.0000   1.0000
     1.0000   1.0000   1.0000   1.0000   1.0000   1.0000   1.0000   1.0000
     1.0000   1.0000   1.0000   1.0000   1.0000   1.0000   1.0000   1.0000
     1.0000   1.0000   1.0000   1.0000   1.0000   1.0000   1.0000   1.0000
     1.0000   1.0000   1.0000   1.0000   1.0000   1.0000   1.0000   1.0000
     1.0000   1.0000   1.0000   1.0000   1.0000   1.0000   1.0000   1.0000
     1.0000   1.0000   1.0000   1.0000   1.0000   1.0000   1.0000   1.0000
     1.0000   1.0000   1.0000   1.0000   1.0000   1.0002   1.0006   1.0345
     1.0336   1.0303   1.0290  -0.0000  -0.0000  -0.0000  -0.0000  -0.0000
    -0.0000  -0.0000  -0.0000  -0.0000  -0.0000  -0.0000

          k = 0.0000 0.0000-0.1635 ( 16862 PWs)   bands (ev):

  -102.0888-101.6333-101.6333 -59.7072 -59.4946 -59.1773 -59.1656 -59.1655
   -59.1086 -59.1086 -58.7916 -58.7910 -30.1790 -15.0278 -15.0026 -10.6979
   -10.1824 -10.1634  -7.3922  -6.7201  -6.4596  -6.1911  -6.0315  -5.9217
    -5.7764  -0.2613  -0.1535  -0.0618  -0.0347   0.0742   0.1198   5.6595
     5.9856   6.0010   6.1279   6.2893   6.3314   6.9941   7.1396   7.1818
     7.2257   7.3437   7.9102   8.1400   8.1416   8.1503   8.1800   8.3071
     8.3779   8.4109   8.5057   8.5069   8.5131   8.8241   9.0315   9.0766
     9.1432   9.4188   9.4710   9.4757   9.5529   9.8439   9.8489   9.8961
    10.1139  10.1249  10.1436  13.6717  13.7993  14.6217  15.3136  15.3396
    15.8939  16.1038  17.0836  17.3183  17.5561  18.1274

     occupation numbers 
     1.0000   1.0000   1.0000   1.0000   1.0000   1.0000   1.0000   1.0000
     1.0000   1.0000   1.0000   1.0000   1.0000   1.0000   1.0000   1.0000
     1.0000   1.0000   1.0000   1.0000   1.0000   1.0000   1.0000   1.0000
     1.0000   1.0000   1.0000   1.0000   1.0000   1.0000   1.0000   1.0000
     1.0000   1.0000   1.0000   1.0000   1.0000   1.0000   1.0000   1.0000
     1.0000   1.0000   1.0000   1.0000   1.0000   1.0000   1.0000   1.0000
     1.0000   1.0000   1.0000   1.0000   1.0000   1.0000   1.0000   1.0000
     1.0000   1.0000   1.0000   1.0000   1.0000   1.0001   1.0001   1.0008
     1.0242   1.0131   0.9829  -0.0000  -0.0000  -0.0000  -0.0000  -0.0000
    -0.0000  -0.0000  -0.0000  -0.0000  -0.0000  -0.0000

          k = 0.0000-0.4916 0.0000 ( 16878 PWs)   bands (ev):

  -102.0889-101.6333-101.6333 -59.7072 -59.4946 -59.1773 -59.1656 -59.1655
   -59.1087 -59.1087 -58.7916 -58.7910 -30.1668 -14.9050 -14.8854 -10.7305
   -10.4671 -10.1462  -6.7919  -6.6675  -6.5814  -6.3177  -6.1478  -6.0558
    -5.9410  -0.1941  -0.0959  -0.0651  -0.0001   0.3024   0.3517   4.7813
     5.1157   5.2267   5.7520   6.0380   6.4368   6.4370   6.5708   6.8706
     6.9640   7.0084   7.0672   7.2321   7.2862   7.5588   7.6412   7.8253
     7.9914   7.9981   8.3634   8.4918   8.6615   9.0663   9.1525   9.4017
     9.4331   9.4572   9.6626   9.8602   9.9537  10.1263  10.1658  10.1722
    10.2314  10.6989  12.4389  15.1689  15.5351  15.9303  16.4579  16.6370
    16.6430  16.9397  17.0989  17.8021  18.1289  18.1304

     occupation numbers 
     1.0000   1.0000   1.0000   1.0000   1.0000   1.0000   1.0000   1.0000
     1.0000   1.0000   1.0000   1.0000   1.0000   1.0000   1.0000   1.0000
     1.0000   1.0000   1.0000   1.0000   1.0000   1.0000   1.0000   1.0000
     1.0000   1.0000   1.0000   1.0000   1.0000   1.0000   1.0000   1.0000
     1.0000   1.0000   1.0000   1.0000   1.0000   1.0000   1.0000   1.0000
     1.0000   1.0000   1.0000   1.0000   1.0000   1.0000   1.0000   1.0000
     1.0000   1.0000   1.0000   1.0000   1.0000   1.0000   1.0000   1.0000
     1.0000   1.0000   1.0000   1.0002   1.0045   1.0115   0.9244   0.9027
     0.6071  -0.0000  -0.0000  -0.0000  -0.0000  -0.0000  -0.0000  -0.0000
    -0.0000  -0.0000  -0.0000  -0.0000  -0.0000  -0.0000

          k = 0.0000-0.4916-0.1635 ( 16792 PWs)   bands (ev):

  -102.0889-101.6333-101.6333 -59.7072 -59.4946 -59.1773 -59.1656 -59.1655
   -59.1087 -59.1087 -58.7916 -58.7910 -30.1668 -14.9059 -14.8845 -10.7305
   -10.4673 -10.1461  -6.8383  -6.5737  -6.4938  -6.4884  -6.1044  -6.0894
    -5.9148  -0.2156  -0.0738  -0.0639  -0.0014   0.3006   0.3535   4.8103
     5.0727   5.2383   5.7508   5.9158   6.4348   6.5523   6.7446   6.9168
     6.9181   6.9769   7.1468   7.2260   7.2508   7.2658   7.6508   7.8281
     7.8590   8.1116   8.4819   8.5509   8.6553   9.0752   9.3001   9.4039
     9.4566   9.4704   9.6508   9.6588   9.9702  10.1399  10.1469  10.1794
    10.2080  10.6030  12.5159  15.4626  15.5414  15.8345  15.9306  16.5411
    16.7665  17.1391  17.4435  17.6030  17.8675  18.3737

     occupation numbers 
     1.0000   1.0000   1.0000   1.0000   1.0000   1.0000   1.0000   1.0000
     1.0000   1.0000   1.0000   1.0000   1.0000   1.0000   1.0000   1.0000
     1.0000   1.0000   1.0000   1.0000   1.0000   1.0000   1.0000   1.0000
     1.0000   1.0000   1.0000   1.0000   1.0000   1.0000   1.0000   1.0000
     1.0000   1.0000   1.0000   1.0000   1.0000   1.0000   1.0000   1.0000
     1.0000   1.0000   1.0000   1.0000   1.0000   1.0000   1.0000   1.0000
     1.0000   1.0000   1.0000   1.0000   1.0000   1.0000   1.0000   1.0000
     1.0000   1.0000   1.0000   1.0000   1.0068   0.9902   0.9759   0.8757
     0.7416  -0.0007  -0.0000  -0.0000  -0.0000  -0.0000  -0.0000  -0.0000
    -0.0000  -0.0000  -0.0000  -0.0000  -0.0000  -0.0000

          k =-0.5000 0.0000 0.0000 ( 16814 PWs)   bands (ev):

  -102.0888-101.6334-101.6333 -59.7072 -59.4946 -59.1775 -59.1657 -59.1656
   -59.1086 -59.1086 -58.7916 -58.7909 -30.1642 -14.8827 -14.8697 -10.7536
   -10.4445 -10.1618  -7.0300  -6.7155  -6.6521  -6.2928  -6.0705  -6.0444
    -5.7381  -0.4294  -0.1367  -0.0181   0.0594   0.2000   0.2186   4.8725
     5.0570   5.7198   6.2354   6.4738   6.5347   6.6396   6.6713   6.7905
     6.7956   7.0285   7.0630   7.4061   7.5658   7.5881   7.8860   8.0428
     8.0861   8.4155   8.4999   8.5625   8.5992   8.6613   8.8751   9.2880
     9.4221   9.4227   9.4452   9.5477   9.6033   9.9399  10.0345  10.0647
    10.1896  10.3623  10.6989  14.8120  15.7310  15.8503  16.6678  17.0407
    17.2030  17.2278  17.4378  17.5428  17.7439  17.8603

     occupation numbers 
     1.0000   1.0000   1.0000   1.0000   1.0000   1.0000   1.0000   1.0000
     1.0000   1.0000   1.0000   1.0000   1.0000   1.0000   1.0000   1.0000
     1.0000   1.0000   1.0000   1.0000   1.0000   1.0000   1.0000   1.0000
     1.0000   1.0000   1.0000   1.0000   1.0000   1.0000   1.0000   1.0000
     1.0000   1.0000   1.0000   1.0000   1.0000   1.0000   1.0000   1.0000
     1.0000   1.0000   1.0000   1.0000   1.0000   1.0000   1.0000   1.0000
     1.0000   1.0000   1.0000   1.0000   1.0000   1.0000   1.0000   1.0000
     1.0000   1.0000   1.0000   1.0000   1.0000   1.0030   1.0242   1.0333
     0.8325   0.0018  -0.0000  -0.0000  -0.0000  -0.0000  -0.0000  -0.0000
    -0.0000  -0.0000  -0.0000  -0.0000  -0.0000  -0.0000

          k =-0.5000 0.0000-0.1635 ( 16840 PWs)   bands (ev):

  -102.0888-101.6334-101.6333 -59.7072 -59.4946 -59.1775 -59.1657 -59.1656
   -59.1086 -59.1086 -58.7916 -58.7910 -30.1642 -14.8836 -14.8688 -10.7536
   -10.4446 -10.1618  -7.0552  -6.6515  -6.5910  -6.4587  -6.0450  -5.9866
    -5.7554  -0.4097  -0.1590  -0.0177   0.0591   0.1983   0.2204   4.8908
     5.0382   5.7171   6.2141   6.4716   6.5349   6.6593   6.7706   6.8178
     6.9217   7.0315   7.0603   7.0728   7.4038   7.6993   8.0403   8.0454
     8.0855   8.3775   8.4270   8.5053   8.5928   8.8620   9.0526   9.1688
     9.3280   9.4273   9.4922   9.5478   9.5992   9.8840  10.0345  10.1058
    10.1840  10.2530  10.7623  14.8754  15.6324  15.8504  16.7179  16.9062
    17.1308  17.1594  17.4142  17.6151  17.6872  17.8865

     occupation numbers 
     1.0000   1.0000   1.0000   1.0000   1.0000   1.0000   1.0000   1.0000
     1.0000   1.0000   1.0000   1.0000   1.0000   1.0000   1.0000   1.0000
     1.0000   1.0000   1.0000   1.0000   1.0000   1.0000   1.0000   1.0000
     1.0000   1.0000   1.0000   1.0000   1.0000   1.0000   1.0000   1.0000
     1.0000   1.0000   1.0000   1.0000   1.0000   1.0000   1.0000   1.0000
     1.0000   1.0000   1.0000   1.0000   1.0000   1.0000   1.0000   1.0000
     1.0000   1.0000   1.0000   1.0000   1.0000   1.0000   1.0000   1.0000
     1.0000   1.0000   1.0000   1.0000   1.0000   1.0005   1.0242   1.0296
     0.8567   0.4740  -0.0000  -0.0000  -0.0000  -0.0000  -0.0000  -0.0000
    -0.0000  -0.0000  -0.0000  -0.0000  -0.0000  -0.0000

          k =-0.5000-0.4916 0.0000 ( 16892 PWs)   bands (ev):

  -102.0889-101.6334-101.6333 -59.7072 -59.4946 -59.1775 -59.1657 -59.1656
   -59.1087 -59.1086 -58.7916 -58.7909 -30.1523 -14.7957 -14.7829 -10.7084
   -10.6790 -10.2433  -6.4626  -6.4014  -6.3596  -6.1344  -6.0675  -5.9767
    -5.8531  -0.8337  -0.8302  -0.8030  -0.5604  -0.3958  -0.1107   3.7698
     4.4002   5.0425   5.4444   5.6379   5.6926   5.7264   6.2293   6.5306
     6.9330   7.0852   7.1293   7.1644   7.2594   7.3924   7.4008   8.3203
     8.7441   8.9964   9.3407   9.4302   9.5634   9.7251   9.7490   9.7762
     9.7968   9.8915   9.8951  10.0385  10.0448  10.0606  10.2207  10.2569
    12.0983  12.8500  12.9256  13.2327  14.4639  16.1957  16.2509  16.7604
    16.8226  16.9623  17.2976  17.9136  18.1585  18.5967

     occupation numbers 
     1.0000   1.0000   1.0000   1.0000   1.0000   1.0000   1.0000   1.0000
     1.0000   1.0000   1.0000   1.0000   1.0000   1.0000   1.0000   1.0000
     1.0000   1.0000   1.0000   1.0000   1.0000   1.0000   1.0000   1.0000
     1.0000   1.0000   1.0000   1.0000   1.0000   1.0000   1.0000   1.0000
     1.0000   1.0000   1.0000   1.0000   1.0000   1.0000   1.0000   1.0000
     1.0000   1.0000   1.0000   1.0000   1.0000   1.0000   1.0000   1.0000
     1.0000   1.0000   1.0000   1.0000   1.0000   1.0000   1.0000   1.0000
     1.0000   1.0006   1.0007   1.0256   1.0277   1.0324   0.6709   0.4497
    -0.0000  -0.0000  -0.0000  -0.0000  -0.0000  -0.0000  -0.0000  -0.0000
    -0.0000  -0.0000  -0.0000  -0.0000  -0.0000  -0.0000

          k =-0.5000-0.4916-0.1635 ( 16904 PWs)   bands (ev):

  -102.0889-101.6334-101.6333 -59.7072 -59.4946 -59.1775 -59.1657 -59.1656
   -59.1087 -59.1086 -58.7916 -58.7909 -30.1523 -14.7963 -14.7823 -10.7084
   -10.6790 -10.2434  -6.4626  -6.4047  -6.3595  -6.1345  -6.0566  -5.9767
    -5.8609  -0.8315  -0.8304  -0.8028  -0.5622  -0.3654  -0.1454   3.7993
     4.3467   5.0512   5.5175   5.6439   5.6782   5.7473   6.1368   6.5045
     6.9304   7.1216   7.1327   7.1508   7.2861   7.3690   7.3840   8.5879
     8.7800   9.0139   9.3276   9.3904   9.4355   9.5761   9.6228   9.6487
     9.8162   9.9503   9.9862  10.0071  10.0309  10.1160  10.2031  10.2519
    12.3728  12.8498  12.9256  13.2491  14.2805  16.3015  16.4290  16.5267
    16.8744  17.1211  17.2192  17.6568  17.6822  18.2520

     occupation numbers 
     1.0000   1.0000   1.0000   1.0000   1.0000   1.0000   1.0000   1.0000
     1.0000   1.0000   1.0000   1.0000   1.0000   1.0000   1.0000   1.0000
     1.0000   1.0000   1.0000   1.0000   1.0000   1.0000   1.0000   1.0000
     1.0000   1.0000   1.0000   1.0000   1.0000   1.0000   1.0000   1.0000
     1.0000   1.0000   1.0000   1.0000   1.0000   1.0000   1.0000   1.0000
     1.0000   1.0000   1.0000   1.0000   1.0000   1.0000   1.0000   1.0000
     1.0000   1.0000   1.0000   1.0000   1.0000   1.0000   1.0000   1.0000
     1.0000   1.0041   1.0099   1.0154   1.0230   1.0224   0.7675   0.4808
    -0.0000  -0.0000  -0.0000  -0.0000  -0.0000  -0.0000  -0.0000  -0.0000
    -0.0000  -0.0000  -0.0000  -0.0000  -0.0000  -0.0000

     the Fermi energy is    10.2488 ev

!    total energy              =   -1671.50497355 Ry
     estimated scf accuracy    <          6.9E-09 Ry
     smearing contrib. (-TS)   =      -0.00028996 Ry
     internal energy E=F+TS    =   -1671.50468359 Ry

     The total energy is F=E-TS. E is the sum of the following terms:
     one-electron contribution =   -1262.11542670 Ry
     hartree contribution      =     705.27365957 Ry
     xc contribution           =    -250.72738362 Ry
     ewald contribution        =    -863.93553284 Ry

     convergence has been achieved in  36 iterations

     negative rho (up, down):  1.726E-01 0.000E+00

     Forces acting on atoms (cartesian axes, Ry/au):

     atom    1 type  1   force =     0.00000000    0.00000000    0.00000000
     atom    2 type  2   force =     0.00000000    0.00000000    0.00695688
     atom    3 type  2   force =     0.00000000    0.00000000   -0.00695688
     atom    4 type  3   force =     0.00000000    0.00000000    0.00000000
     atom    5 type  3   force =     0.00000000    0.00000000    0.03503666
     atom    6 type  3   force =     0.00000000    0.00000000   -0.03503666
     atom    7 type  4   force =     0.00000000    0.00000000   -0.01453459
     atom    8 type  4   force =     0.00000000    0.00000000    0.01453459
     atom    9 type  4   force =     0.00000000    0.00000000   -0.01365087
     atom   10 type  4   force =     0.00000000    0.00000000    0.01365087
     atom   11 type  4   force =     0.00000000    0.00000000    0.00000000
     atom   12 type  4   force =     0.00000000    0.00000000    0.00346030
     atom   13 type  4   force =     0.00000000    0.00000000   -0.00346030
     The non-local contrib.  to forces
     atom    1 type  1   force =     0.00000000    0.00000000    0.00000000
     atom    2 type  2   force =     0.00000000    0.00000000    0.00333396
     atom    3 type  2   force =     0.00000000    0.00000000   -0.00333396
     atom    4 type  3   force =     0.00000000    0.00000000    0.00000000
     atom    5 type  3   force =     0.00000000    0.00000000   -0.12944368
     atom    6 type  3   force =     0.00000000    0.00000000    0.12944368
     atom    7 type  4   force =     0.00000000    0.00000000    0.02156721
     atom    8 type  4   force =     0.00000000    0.00000000   -0.02156721
     atom    9 type  4   force =     0.00000000    0.00000000    0.10302635
     atom   10 type  4   force =     0.00000000    0.00000000   -0.10302635
     atom   11 type  4   force =     0.00000000    0.00000000    0.00000000
     atom   12 type  4   force =     0.00000000    0.00000000   -0.39333387
     atom   13 type  4   force =     0.00000000    0.00000000    0.39333387
     The ionic contribution  to forces
     atom    1 type  1   force =     0.00000000   -0.00000000   -0.00000000
     atom    2 type  2   force =    -0.00000000   -0.00000000  -12.34053797
     atom    3 type  2   force =     0.00000000   -0.00000000   12.34053797
     atom    4 type  3   force =     0.00000000    0.00000000   -0.00000000
     atom    5 type  3   force =    -0.00000000   -0.00000000  -27.19297140
     atom    6 type  3   force =    -0.00000000   -0.00000000   27.19297140
     atom    7 type  4   force =     0.00000000    0.00000000   -6.20032068
     atom    8 type  4   force =     0.00000000    0.00000000    6.20032068
     atom    9 type  4   force =    -0.00000000    0.00000000   -6.58727138
     atom   10 type  4   force =     0.00000000   -0.00000000    6.58727138
     atom   11 type  4   force =     0.00000000    0.00000000   -0.00000000
     atom   12 type  4   force =     0.00000000    0.00000000    0.86781871
     atom   13 type  4   force =     0.00000000   -0.00000000   -0.86781871
     The local contribution  to forces
     atom    1 type  1   force =     0.00000000    0.00000000    0.00000000
     atom    2 type  2   force =    -0.00000000    0.00000000   12.34377211
     atom    3 type  2   force =     0.00000000    0.00000000  -12.34377211
     atom    4 type  3   force =    -0.00000000    0.00000000   -0.00000000
     atom    5 type  3   force =    -0.00000000   -0.00000000   27.35700349
     atom    6 type  3   force =    -0.00000000    0.00000000  -27.35700349
     atom    7 type  4   force =     0.00000000    0.00000000    6.16393340
     atom    8 type  4   force =     0.00000000   -0.00000000   -6.16393340
     atom    9 type  4   force =    -0.00000000   -0.00000000    6.47089946
     atom   10 type  4   force =    -0.00000000   -0.00000000   -6.47089946
     atom   11 type  4   force =    -0.00000000   -0.00000000   -0.00000000
     atom   12 type  4   force =    -0.00000000   -0.00000000   -0.47330316
     atom   13 type  4   force =    -0.00000000    0.00000000    0.47330316
     The core correction contribution to forces
     atom    1 type  1   force =    -0.00000000    0.00000000    0.00000000
     atom    2 type  2   force =    -0.00000000    0.00000000    0.00034822
     atom    3 type  2   force =    -0.00000000    0.00000000   -0.00034822
     atom    4 type  3   force =    -0.00000000    0.00000000    0.00000000
     atom    5 type  3   force =    -0.00000000   -0.00000000    0.00036641
     atom    6 type  3   force =    -0.00000000    0.00000000   -0.00036641
     atom    7 type  4   force =     0.00000000    0.00000000    0.00024392
     atom    8 type  4   force =     0.00000000   -0.00000000   -0.00024392
     atom    9 type  4   force =    -0.00000000   -0.00000000   -0.00037400
     atom   10 type  4   force =    -0.00000000   -0.00000000    0.00037400
     atom   11 type  4   force =    -0.00000000   -0.00000000   -0.00000000
     atom   12 type  4   force =    -0.00000000    0.00000000    0.00225830
     atom   13 type  4   force =    -0.00000000    0.00000000   -0.00225830
     The Hubbard contrib.    to forces
     atom    1 type  1   force =     0.00000000    0.00000000    0.00000000
     atom    2 type  2   force =     0.00000000    0.00000000    0.00000000
     atom    3 type  2   force =     0.00000000    0.00000000    0.00000000
     atom    4 type  3   force =     0.00000000    0.00000000    0.00000000
     atom    5 type  3   force =     0.00000000    0.00000000    0.00000000
     atom    6 type  3   force =     0.00000000    0.00000000    0.00000000
     atom    7 type  4   force =     0.00000000    0.00000000    0.00000000
     atom    8 type  4   force =     0.00000000    0.00000000    0.00000000
     atom    9 type  4   force =     0.00000000    0.00000000    0.00000000
     atom   10 type  4   force =     0.00000000    0.00000000    0.00000000
     atom   11 type  4   force =     0.00000000    0.00000000    0.00000000
     atom   12 type  4   force =     0.00000000    0.00000000    0.00000000
     atom   13 type  4   force =     0.00000000    0.00000000    0.00000000
     The SCF correction term to forces
     atom    1 type  1   force =    -0.00000000    0.00000000    0.00000000
     atom    2 type  2   force =    -0.00000000   -0.00000000    0.00004056
     atom    3 type  2   force =     0.00000000    0.00000000   -0.00004056
     atom    4 type  3   force =    -0.00000000   -0.00000000    0.00000000
     atom    5 type  3   force =     0.00000000    0.00000000    0.00008184
     atom    6 type  3   force =    -0.00000000   -0.00000000   -0.00008184
     atom    7 type  4   force =    -0.00000000    0.00000000    0.00004156
     atom    8 type  4   force =     0.00000000   -0.00000000   -0.00004156
     atom    9 type  4   force =     0.00000000    0.00000000    0.00006870
     atom   10 type  4   force =    -0.00000000   -0.00000000   -0.00006870
     atom   11 type  4   force =     0.00000000    0.00000000    0.00000000
     atom   12 type  4   force =    -0.00000000    0.00000000    0.00002031
     atom   13 type  4   force =    -0.00000000   -0.00000000   -0.00002031

     Total force =     0.058061     Total SCF correction =     0.000174


     Computing stress (Cartesian axis) and pressure


     negative rho (up, down):  1.726E-01 0.000E+00
          total   stress  (Ry/bohr**3)                   (kbar)     P=       38.77
   0.00030312   0.00000000   0.00000000           44.59        0.00        0.00
   0.00000000   0.00040405   0.00000000            0.00       59.44        0.00
   0.00000000   0.00000000   0.00008356            0.00        0.00       12.29

     kinetic stress (kbar)  23143.37      0.00      0.00
                                0.00  22958.96      0.00
                                0.00      0.00  23118.04

     local   stress (kbar) -19437.07     -0.00     -0.00
                               -0.00 -37714.41     -0.00
                               -0.00     -0.00   -453.05

     nonloc. stress (kbar)  11143.95      0.00      0.00
                                0.00  11122.52      0.00
                                0.00      0.00  11175.50

     hartree stress (kbar)  29800.01      0.00      0.00
                                0.00  37984.78      0.00
                                0.00      0.00  20864.24

     exc-cor stress (kbar)   -492.26     -0.00     -0.00
                               -0.00   -486.85     -0.00
                               -0.00     -0.00   -496.29

     corecor stress (kbar)  -7840.89      0.00      0.00
                                0.00  -7840.96     -0.00
                                0.00     -0.00  -7841.32

     ewald   stress (kbar) -36272.52     -0.00      0.00
                               -0.00 -25964.60      0.00
                                0.00      0.00 -46354.84

     hubbard stress (kbar)      0.00      0.00      0.00
                                0.00      0.00      0.00
                                0.00      0.00      0.00

     DFT-D   stress (kbar)      0.00      0.00      0.00
                                0.00      0.00      0.00
                                0.00      0.00      0.00

     XDM     stress (kbar)      0.00      0.00      0.00
                                0.00      0.00      0.00
                                0.00      0.00      0.00

     dft-nl  stress (kbar)      0.00      0.00      0.00
                                0.00      0.00      0.00
                                0.00      0.00      0.00

     TS-vdW  stress (kbar)      0.00      0.00      0.00
                                0.00      0.00      0.00
                                0.00      0.00      0.00

     MDB     stress (kbar)      0.00      0.00      0.00
                                0.00      0.00      0.00
                                0.00      0.00      0.00

     3D-RISM stress (kbar)      0.00      0.00      0.00
                                0.00      0.00      0.00
                                0.00      0.00      0.00


     BFGS Geometry Optimization
     Energy error            =      0.0E+00 Ry
     Gradient error          =      3.5E-02 Ry/Bohr
     Cell gradient error     =      5.9E+01 kbar

     number of scf cycles    =   1
     number of bfgs steps    =   0

     enthalpy           new  =   -1671.5049735547 Ry

     new trust radius        =       0.0691134128 bohr
     new conv_thr            =       0.0000000100 Ry

     new unit-cell volume =   1193.60668 a.u.^3 (   176.87426 Ang^3 )
     density =      6.25436 g/cm^3

CELL_PARAMETERS (alat=  7.21932071)
   1.007577897   0.000000000   0.000000000
   0.000000000   1.027335116   0.000000000
   0.000000000   0.000000000   3.064654143

ATOMIC_POSITIONS (crystal)
Y                0.5000000000        0.5000000000        0.5000000000
Ba               0.5000000000        0.5000000000        0.1842450962
Ba               0.5000000000        0.5000000000        0.8157549038
Cu               0.0000000000        0.0000000000        0.0000000000
Cu               0.0000000000        0.0000000000        0.3565969062
Cu               0.0000000000        0.0000000000        0.6434030938
O                0.5000000000        0.0000000000        0.3775316888
O                0.5000000000        0.0000000000        0.6224683112
O                0.0000000000        0.5000000000        0.3763117146
O                0.0000000000        0.5000000000        0.6236882854
O                0.0000000000        0.5000000000        0.0000000000
O                0.0000000000        0.0000000000        0.1585567264
O                0.0000000000        0.0000000000        0.8414432736



     Writing config-only to output data dir ./YBCO.vc-relax/YBCO.vc-relax.save/
     NEW-OLD atomic charge density approx. for the potential

     negative rho (up, down):  1.728E-01 0.000E+00

     total cpu time spent up to now is      195.9 secs

     Self-consistent Calculation

     iteration #  1     ecut=    90.00 Ry     beta= 0.10
     Davidson diagonalization with overlap

---- Real-time Memory Report at c_bands before calling an iterative solver
           964 MiB given to the printing process from OS
             0 MiB allocation reported by mallinfo(arena+hblkhd)
          6784 MiB available memory on the node where the printing process lives
------------------
     ethr =  1.00E-06,  avg # of iterations =  8.4

     negative rho (up, down):  1.729E-01 0.000E+00

     total cpu time spent up to now is      206.1 secs

     total energy              =   -1671.49951673 Ry
     estimated scf accuracy    <       0.07450950 Ry

     iteration #  2     ecut=    90.00 Ry     beta= 0.10
     Davidson diagonalization with overlap

---- Real-time Memory Report at c_bands before calling an iterative solver
           964 MiB given to the printing process from OS
             0 MiB allocation reported by mallinfo(arena+hblkhd)
          6766 MiB available memory on the node where the printing process lives
------------------
     ethr =  5.73E-05,  avg # of iterations =  1.6

     negative rho (up, down):  1.729E-01 0.000E+00

     total cpu time spent up to now is      211.0 secs

     total energy              =   -1671.49975287 Ry
     estimated scf accuracy    <       0.49513173 Ry

     iteration #  3     ecut=    90.00 Ry     beta= 0.10
     Davidson diagonalization with overlap

---- Real-time Memory Report at c_bands before calling an iterative solver
           964 MiB given to the printing process from OS
             0 MiB allocation reported by mallinfo(arena+hblkhd)
          6733 MiB available memory on the node where the printing process lives
------------------
     ethr =  5.73E-05,  avg # of iterations =  1.0

     negative rho (up, down):  1.729E-01 0.000E+00

     total cpu time spent up to now is      215.7 secs

     total energy              =   -1671.51044219 Ry
     estimated scf accuracy    <       0.02389819 Ry

     iteration #  4     ecut=    90.00 Ry     beta= 0.10
     Davidson diagonalization with overlap

---- Real-time Memory Report at c_bands before calling an iterative solver
           964 MiB given to the printing process from OS
             0 MiB allocation reported by mallinfo(arena+hblkhd)
          6726 MiB available memory on the node where the printing process lives
------------------
     ethr =  1.84E-05,  avg # of iterations =  1.0

     negative rho (up, down):  1.729E-01 0.000E+00

     total cpu time spent up to now is      220.4 secs

     total energy              =   -1671.51129351 Ry
     estimated scf accuracy    <       0.00244743 Ry

     iteration #  5     ecut=    90.00 Ry     beta= 0.10
     Davidson diagonalization with overlap

---- Real-time Memory Report at c_bands before calling an iterative solver
           964 MiB given to the printing process from OS
             0 MiB allocation reported by mallinfo(arena+hblkhd)
          6723 MiB available memory on the node where the printing process lives
------------------
     ethr =  1.88E-06,  avg # of iterations =  1.1

     negative rho (up, down):  1.730E-01 0.000E+00

     total cpu time spent up to now is      225.1 secs

     total energy              =   -1671.51153910 Ry
     estimated scf accuracy    <       0.00088970 Ry

     iteration #  6     ecut=    90.00 Ry     beta= 0.10
     Davidson diagonalization with overlap

---- Real-time Memory Report at c_bands before calling an iterative solver
           964 MiB given to the printing process from OS
             0 MiB allocation reported by mallinfo(arena+hblkhd)
          6715 MiB available memory on the node where the printing process lives
------------------
     ethr =  6.84E-07,  avg # of iterations =  2.0

     negative rho (up, down):  1.730E-01 0.000E+00

     total cpu time spent up to now is      230.2 secs

     total energy              =   -1671.51185680 Ry
     estimated scf accuracy    <       0.00242856 Ry

     iteration #  7     ecut=    90.00 Ry     beta= 0.10
     Davidson diagonalization with overlap

---- Real-time Memory Report at c_bands before calling an iterative solver
           964 MiB given to the printing process from OS
             0 MiB allocation reported by mallinfo(arena+hblkhd)
          6714 MiB available memory on the node where the printing process lives
------------------
     ethr =  6.84E-07,  avg # of iterations =  1.0

     negative rho (up, down):  1.730E-01 0.000E+00

     total cpu time spent up to now is      234.9 secs

     total energy              =   -1671.51213831 Ry
     estimated scf accuracy    <       0.00035982 Ry

     iteration #  8     ecut=    90.00 Ry     beta= 0.10
     Davidson diagonalization with overlap

---- Real-time Memory Report at c_bands before calling an iterative solver
           964 MiB given to the printing process from OS
             0 MiB allocation reported by mallinfo(arena+hblkhd)
          6714 MiB available memory on the node where the printing process lives
------------------
     ethr =  2.77E-07,  avg # of iterations =  2.0

     negative rho (up, down):  1.731E-01 0.000E+00

     total cpu time spent up to now is      239.9 secs

     total energy              =   -1671.51233106 Ry
     estimated scf accuracy    <       0.00083144 Ry

     iteration #  9     ecut=    90.00 Ry     beta= 0.10
     Davidson diagonalization with overlap

---- Real-time Memory Report at c_bands before calling an iterative solver
           964 MiB given to the printing process from OS
             0 MiB allocation reported by mallinfo(arena+hblkhd)
          6709 MiB available memory on the node where the printing process lives
------------------
     ethr =  2.77E-07,  avg # of iterations =  1.0
     Minimization algorithm failed to find Fermi energy: reverting to bisection
     Possible cause: smearing is larger than the electronic band-gap.

     negative rho (up, down):  1.731E-01 0.000E+00

     total cpu time spent up to now is      244.7 secs

     total energy              =   -1671.51252147 Ry
     estimated scf accuracy    <       0.00201565 Ry

     iteration # 10     ecut=    90.00 Ry     beta= 0.10
     Davidson diagonalization with overlap

---- Real-time Memory Report at c_bands before calling an iterative solver
           964 MiB given to the printing process from OS
             0 MiB allocation reported by mallinfo(arena+hblkhd)
          6705 MiB available memory on the node where the printing process lives
------------------
     ethr =  2.77E-07,  avg # of iterations =  1.0

     negative rho (up, down):  1.731E-01 0.000E+00

     total cpu time spent up to now is      249.5 secs

     total energy              =   -1671.51269005 Ry
     estimated scf accuracy    <       0.00001970 Ry

     iteration # 11     ecut=    90.00 Ry     beta= 0.10
     Davidson diagonalization with overlap

---- Real-time Memory Report at c_bands before calling an iterative solver
           964 MiB given to the printing process from OS
             0 MiB allocation reported by mallinfo(arena+hblkhd)
          6700 MiB available memory on the node where the printing process lives
------------------
     ethr =  1.52E-08,  avg # of iterations =  2.4
     Minimization algorithm failed to find Fermi energy: reverting to bisection
     Possible cause: smearing is larger than the electronic band-gap.

     negative rho (up, down):  1.731E-01 0.000E+00

     total cpu time spent up to now is      254.6 secs

     total energy              =   -1671.51280330 Ry
     estimated scf accuracy    <       0.00004275 Ry

     iteration # 12     ecut=    90.00 Ry     beta= 0.10
     Davidson diagonalization with overlap

---- Real-time Memory Report at c_bands before calling an iterative solver
           964 MiB given to the printing process from OS
             0 MiB allocation reported by mallinfo(arena+hblkhd)
          6698 MiB available memory on the node where the printing process lives
------------------
     ethr =  1.52E-08,  avg # of iterations =  1.0

     negative rho (up, down):  1.731E-01 0.000E+00

     total cpu time spent up to now is      259.3 secs

     total energy              =   -1671.51289436 Ry
     estimated scf accuracy    <       0.00000173 Ry

     iteration # 13     ecut=    90.00 Ry     beta= 0.10
     Davidson diagonalization with overlap

---- Real-time Memory Report at c_bands before calling an iterative solver
           964 MiB given to the printing process from OS
             0 MiB allocation reported by mallinfo(arena+hblkhd)
          6697 MiB available memory on the node where the printing process lives
------------------
     ethr =  1.33E-09,  avg # of iterations =  2.0

     negative rho (up, down):  1.731E-01 0.000E+00

     total cpu time spent up to now is      264.5 secs

     total energy              =   -1671.51296729 Ry
     estimated scf accuracy    <       0.00000205 Ry

     iteration # 14     ecut=    90.00 Ry     beta= 0.10
     Davidson diagonalization with overlap

---- Real-time Memory Report at c_bands before calling an iterative solver
           964 MiB given to the printing process from OS
             0 MiB allocation reported by mallinfo(arena+hblkhd)
          6697 MiB available memory on the node where the printing process lives
------------------
     ethr =  1.33E-09,  avg # of iterations =  1.0

     negative rho (up, down):  1.731E-01 0.000E+00

     total cpu time spent up to now is      269.2 secs

     total energy              =   -1671.51302618 Ry
     estimated scf accuracy    <       0.00000012 Ry

     iteration # 15     ecut=    90.00 Ry     beta= 0.10
     Davidson diagonalization with overlap

---- Real-time Memory Report at c_bands before calling an iterative solver
           964 MiB given to the printing process from OS
             0 MiB allocation reported by mallinfo(arena+hblkhd)
          6698 MiB available memory on the node where the printing process lives
------------------
     ethr =  9.15E-11,  avg # of iterations =  3.0

     negative rho (up, down):  1.731E-01 0.000E+00

     total cpu time spent up to now is      274.4 secs

     total energy              =   -1671.51307388 Ry
     estimated scf accuracy    <       0.00000006 Ry

     iteration # 16     ecut=    90.00 Ry     beta= 0.10
     Davidson diagonalization with overlap

---- Real-time Memory Report at c_bands before calling an iterative solver
           964 MiB given to the printing process from OS
             0 MiB allocation reported by mallinfo(arena+hblkhd)
          6690 MiB available memory on the node where the printing process lives
------------------
     ethr =  4.90E-11,  avg # of iterations =  2.1

     negative rho (up, down):  1.731E-01 0.000E+00

     total cpu time spent up to now is      279.7 secs

     total energy              =   -1671.51311236 Ry
     estimated scf accuracy    <       0.00000002 Ry

     iteration # 17     ecut=    90.00 Ry     beta= 0.10
     Davidson diagonalization with overlap

---- Real-time Memory Report at c_bands before calling an iterative solver
           964 MiB given to the printing process from OS
             0 MiB allocation reported by mallinfo(arena+hblkhd)
          6690 MiB available memory on the node where the printing process lives
------------------
     ethr =  1.32E-11,  avg # of iterations =  2.1

     negative rho (up, down):  1.731E-01 0.000E+00

     total cpu time spent up to now is      284.9 secs

     total energy              =   -1671.51314349 Ry
     estimated scf accuracy    <       0.00000001 Ry

     iteration # 18     ecut=    90.00 Ry     beta= 0.10
     Davidson diagonalization with overlap

---- Real-time Memory Report at c_bands before calling an iterative solver
           964 MiB given to the printing process from OS
             0 MiB allocation reported by mallinfo(arena+hblkhd)
          6692 MiB available memory on the node where the printing process lives
------------------
     ethr =  8.77E-12,  avg # of iterations =  2.0

     negative rho (up, down):  1.731E-01 0.000E+00

     total cpu time spent up to now is      290.0 secs

     total energy              =   -1671.51316871 Ry
     estimated scf accuracy    <       0.00000001 Ry

     iteration # 19     ecut=    90.00 Ry     beta= 0.10
     Davidson diagonalization with overlap

---- Real-time Memory Report at c_bands before calling an iterative solver
           964 MiB given to the printing process from OS
             0 MiB allocation reported by mallinfo(arena+hblkhd)
          6691 MiB available memory on the node where the printing process lives
------------------
     ethr =  8.18E-12,  avg # of iterations =  2.9

     negative rho (up, down):  1.731E-01 0.000E+00

     total cpu time spent up to now is      295.6 secs

     End of self-consistent calculation

          k = 0.0000 0.0000 0.0000 ( 16893 PWs)   bands (ev):

  -102.3066-101.8834-101.8834 -59.9206 -59.7044 -59.4085 -59.4085 -59.4073
   -59.3423 -59.3423 -59.0653 -59.0646 -30.6125 -15.3470 -15.3265 -11.0486
   -10.6039 -10.5790  -7.5989  -6.9146  -6.7476  -6.4367  -6.2563  -6.1752
    -6.0106  -0.5405  -0.5036  -0.3913  -0.3689  -0.2493  -0.2095   5.4393
     5.8085   5.8251   5.9517   6.0866   6.1333   6.8101   6.9239   7.0059
     7.0108   7.1121   7.7942   7.8260   7.9026   7.9318   7.9450   8.0956
     8.1559   8.1672   8.1755   8.2001   8.2526   8.6177   8.6241   8.8321
     8.8776   8.9921   9.0767   9.1080   9.3676   9.4915   9.5918   9.7557
     9.7776   9.8162   9.8249  12.9759  13.6638  14.5348  14.5856  15.3126
    15.6793  16.0010  16.3896  16.6936  17.1379  17.3717

     occupation numbers 
     1.0000   1.0000   1.0000   1.0000   1.0000   1.0000   1.0000   1.0000
     1.0000   1.0000   1.0000   1.0000   1.0000   1.0000   1.0000   1.0000
[...]
     9.8139   9.9163  10.2720  14.3901  15.0737  15.1875  15.5073  16.5943
    16.6363  16.8335  16.8628  17.0343  17.2090  17.2984

     occupation numbers 
     1.0000   1.0000   1.0000   1.0000   1.0000   1.0000   1.0000   1.0000
     1.0000   1.0000   1.0000   1.0000   1.0000   1.0000   1.0000   1.0000
     1.0000   1.0000   1.0000   1.0000   1.0000   1.0000   1.0000   1.0000
     1.0000   1.0000   1.0000   1.0000   1.0000   1.0000   1.0000   1.0000
     1.0000   1.0000   1.0000   1.0000   1.0000   1.0000   1.0000   1.0000
     1.0000   1.0000   1.0000   1.0000   1.0000   1.0000   1.0000   1.0000
     1.0000   1.0000   1.0000   1.0000   1.0000   1.0000   1.0000   1.0000
     1.0000   1.0000   1.0000   1.0000   1.0000   1.0000   1.0000   1.0010
     0.6387   0.0864  -0.0000  -0.0000  -0.0000  -0.0000  -0.0000  -0.0000
    -0.0000  -0.0000  -0.0000  -0.0000  -0.0000  -0.0000

          k =-0.4944 0.0000-0.1636 ( 17376 PWs)   bands (ev):

  -102.3592-102.1215-102.1213 -59.9703 -59.7448 -59.6278 -59.6276 -59.5632
   -59.5629 -59.4725 -59.3413 -59.3380 -30.8276 -15.3702 -15.3579 -11.3527
   -11.0738 -10.8322  -7.2529  -7.1821  -6.9642  -6.7101  -6.6049  -6.3912
    -6.0006  -0.8475  -0.6431  -0.5245  -0.4537  -0.3126  -0.2938   4.2877
     4.4836   5.5773   5.6581   5.9423   6.2120   6.5125   6.5270   6.5528
     6.5824   6.5997   6.6951   6.9065   7.0909   7.2133   7.5934   7.8230
     7.8861   7.9613   7.9830   8.0152   8.1629   8.4335   8.4949   8.4986
     8.9405   9.0731   9.0867   9.1250   9.1829   9.2644   9.4913   9.5725
     9.6514   9.7909  10.3537  14.5130  14.8985  15.1875  15.5461  16.3690
    16.6208  16.6821  16.9042  17.2012  17.2319  17.2997

     occupation numbers 
     1.0000   1.0000   1.0000   1.0000   1.0000   1.0000   1.0000   1.0000
     1.0000   1.0000   1.0000   1.0000   1.0000   1.0000   1.0000   1.0000
     1.0000   1.0000   1.0000   1.0000   1.0000   1.0000   1.0000   1.0000
     1.0000   1.0000   1.0000   1.0000   1.0000   1.0000   1.0000   1.0000
     1.0000   1.0000   1.0000   1.0000   1.0000   1.0000   1.0000   1.0000
     1.0000   1.0000   1.0000   1.0000   1.0000   1.0000   1.0000   1.0000
     1.0000   1.0000   1.0000   1.0000   1.0000   1.0000   1.0000   1.0000
     1.0000   1.0000   1.0000   1.0000   1.0000   1.0000   1.0010   1.0096
     1.0331   0.7671  -0.0000  -0.0000  -0.0000  -0.0000  -0.0000  -0.0000
    -0.0000  -0.0000  -0.0000  -0.0000  -0.0000  -0.0000

          k =-0.4944-0.4823 0.0000 ( 17388 PWs)   bands (ev):

  -102.3592-102.1215-102.1213 -59.9703 -59.7448 -59.6278 -59.6276 -59.5632
   -59.5630 -59.4724 -59.3413 -59.3380 -30.8181 -15.3002 -15.2902 -11.3118
   -11.2851 -10.9089  -6.9675  -6.8226  -6.5937  -6.5646  -6.3652  -6.3587
    -6.2763  -1.1873  -1.1652  -1.1394  -0.9573  -0.8532  -0.6073   3.2508
     3.9362   4.9674   5.0068   5.1055   5.1859   5.5794   5.7916   6.2505
     6.2806   6.5048   6.7784   6.9088   6.9796   7.0409   7.0934   7.6584
     8.3969   8.5959   8.7829   8.9635   9.0857   9.3099   9.3456   9.3471
     9.3558   9.3950   9.4591   9.5870   9.6402   9.6837   9.8099   9.8657
    11.6879  12.3585  12.4225  13.0242  13.5685  15.4232  15.6643  16.3030
    16.3657  16.3980  16.8105  17.2203  17.6464  17.7634

     occupation numbers 
     1.0000   1.0000   1.0000   1.0000   1.0000   1.0000   1.0000   1.0000
     1.0000   1.0000   1.0000   1.0000   1.0000   1.0000   1.0000   1.0000
     1.0000   1.0000   1.0000   1.0000   1.0000   1.0000   1.0000   1.0000
     1.0000   1.0000   1.0000   1.0000   1.0000   1.0000   1.0000   1.0000
     1.0000   1.0000   1.0000   1.0000   1.0000   1.0000   1.0000   1.0000
     1.0000   1.0000   1.0000   1.0000   1.0000   1.0000   1.0000   1.0000
     1.0000   1.0000   1.0000   1.0000   1.0000   1.0000   1.0000   1.0000
     1.0000   1.0000   1.0003   1.0131   1.0301   1.0336   0.6625   0.3234
    -0.0000  -0.0000  -0.0000  -0.0000  -0.0000  -0.0000  -0.0000  -0.0000
    -0.0000  -0.0000  -0.0000  -0.0000  -0.0000  -0.0000

          k =-0.4944-0.4823-0.1636 ( 17392 PWs)   bands (ev):

  -102.3592-102.1215-102.1213 -59.9703 -59.7448 -59.6278 -59.6276 -59.5632
   -59.5630 -59.4724 -59.3413 -59.3380 -30.8181 -15.3010 -15.2894 -11.3118
   -11.2851 -10.9089  -6.9675  -6.8244  -6.5936  -6.5646  -6.3653  -6.3380
    -6.2953  -1.1869  -1.1631  -1.1415  -0.9572  -0.8204  -0.6437   3.2690
     3.9053   4.9709   5.0619   5.1060   5.1835   5.5910   5.7272   6.2153
     6.2518   6.5955   6.7823   6.9204   6.9488   6.9581   7.0359   8.1331
     8.3031   8.6048   8.7845   8.9281   8.9923   9.1023   9.2427   9.3093
     9.3170   9.4317   9.5360   9.6117   9.6174   9.6892   9.8033   9.8624
    12.0072  12.3579  12.4228  13.0401  13.3644  15.4564  15.9850  16.0712
    16.2814  16.4389  16.7571  17.1547  17.1676  17.6250

     occupation numbers 
     1.0000   1.0000   1.0000   1.0000   1.0000   1.0000   1.0000   1.0000
     1.0000   1.0000   1.0000   1.0000   1.0000   1.0000   1.0000   1.0000
     1.0000   1.0000   1.0000   1.0000   1.0000   1.0000   1.0000   1.0000
     1.0000   1.0000   1.0000   1.0000   1.0000   1.0000   1.0000   1.0000
     1.0000   1.0000   1.0000   1.0000   1.0000   1.0000   1.0000   1.0000
     1.0000   1.0000   1.0000   1.0000   1.0000   1.0000   1.0000   1.0000
     1.0000   1.0000   1.0000   1.0000   1.0000   1.0000   1.0000   1.0000
     1.0000   1.0001   1.0038   1.0207   1.0226   1.0317   0.6999   0.3421
    -0.0000  -0.0000  -0.0000  -0.0000  -0.0000  -0.0000  -0.0000  -0.0000
    -0.0000  -0.0000  -0.0000  -0.0000  -0.0000  -0.0000

     the Fermi energy is     9.8365 ev

!    total energy              =   -1671.52508446 Ry
     estimated scf accuracy    <          4.7E-11 Ry
     smearing contrib. (-TS)   =      -0.00083440 Ry
     internal energy E=F+TS    =   -1671.52425006 Ry

     The total energy is F=E-TS. E is the sum of the following terms:
     one-electron contribution =   -1317.85628212 Ry
     hartree contribution      =     730.92223839 Ry
     xc contribution           =    -250.49899857 Ry
     ewald contribution        =    -834.09120776 Ry

     convergence has been achieved in  36 iterations

     negative rho (up, down):  1.735E-01 0.000E+00

     Forces acting on atoms (cartesian axes, Ry/au):

     atom    1 type  1   force =     0.00000000    0.00000000    0.00000000
     atom    2 type  2   force =     0.00000000    0.00000000    0.00068835
     atom    3 type  2   force =     0.00000000    0.00000000   -0.00068835
     atom    4 type  3   force =     0.00000000    0.00000000    0.00000000
     atom    5 type  3   force =     0.00000000    0.00000000   -0.00009099
     atom    6 type  3   force =     0.00000000    0.00000000    0.00009099
     atom    7 type  4   force =     0.00000000    0.00000000   -0.00012868
     atom    8 type  4   force =     0.00000000    0.00000000    0.00012868
     atom    9 type  4   force =     0.00000000    0.00000000    0.00002922
     atom   10 type  4   force =     0.00000000    0.00000000   -0.00002922
     atom   11 type  4   force =     0.00000000    0.00000000    0.00000000
     atom   12 type  4   force =     0.00000000    0.00000000    0.00025359
     atom   13 type  4   force =     0.00000000    0.00000000   -0.00025359
     The non-local contrib.  to forces
     atom    1 type  1   force =     0.00000000    0.00000000    0.00000000
     atom    2 type  2   force =     0.00000000    0.00000000    0.00188681
     atom    3 type  2   force =     0.00000000    0.00000000   -0.00188681
     atom    4 type  3   force =     0.00000000    0.00000000    0.00000000
     atom    5 type  3   force =     0.00000000    0.00000000    0.04024906
     atom    6 type  3   force =     0.00000000    0.00000000   -0.04024906
     atom    7 type  4   force =     0.00000000    0.00000000    0.14373731
     atom    8 type  4   force =     0.00000000    0.00000000   -0.14373731
     atom    9 type  4   force =     0.00000000    0.00000000    0.21569282
     atom   10 type  4   force =     0.00000000    0.00000000   -0.21569282
     atom   11 type  4   force =     0.00000000    0.00000000    0.00000000
     atom   12 type  4   force =     0.00000000    0.00000000   -0.46566233
     atom   13 type  4   force =     0.00000000    0.00000000    0.46566233
     The ionic contribution  to forces
     atom    1 type  1   force =     0.00000000   -0.00000000   -0.00000000
     atom    2 type  2   force =     0.00000000   -0.00000000  -14.16111767
     atom    3 type  2   force =     0.00000000   -0.00000000   14.16111767
     atom    4 type  3   force =    -0.00000000    0.00000000    0.00000000
     atom    5 type  3   force =    -0.00000000    0.00000000  -34.32804682
     atom    6 type  3   force =    -0.00000000    0.00000000   34.32804682
     atom    7 type  4   force =     0.00000000    0.00000000  -10.49685238
     atom    8 type  4   force =     0.00000000    0.00000000   10.49685238
     atom    9 type  4   force =    -0.00000000   -0.00000000  -10.81232280
     atom   10 type  4   force =    -0.00000000   -0.00000000   10.81232280
     atom   11 type  4   force =    -0.00000000   -0.00000000   -0.00000000
     atom   12 type  4   force =    -0.00000000    0.00000000    1.58341971
     atom   13 type  4   force =    -0.00000000    0.00000000   -1.58341971
     The local contribution  to forces
     atom    1 type  1   force =     0.00000000   -0.00000000   -0.00000000
     atom    2 type  2   force =     0.00000000   -0.00000000   14.15943756
     atom    3 type  2   force =     0.00000000   -0.00000000  -14.15943756
     atom    4 type  3   force =    -0.00000000    0.00000000   -0.00000000
     atom    5 type  3   force =    -0.00000000    0.00000000   34.28783850
     atom    6 type  3   force =    -0.00000000   -0.00000000  -34.28783850
     atom    7 type  4   force =     0.00000000    0.00000000   10.35360419
     atom    8 type  4   force =     0.00000000    0.00000000  -10.35360419
     atom    9 type  4   force =     0.00000000   -0.00000000   10.59780411
     atom   10 type  4   force =    -0.00000000   -0.00000000  -10.59780411
     atom   11 type  4   force =    -0.00000000   -0.00000000   -0.00000000
     atom   12 type  4   force =     0.00000000   -0.00000000   -1.12022091
     atom   13 type  4   force =    -0.00000000   -0.00000000    1.12022091
     The core correction contribution to forces
     atom    1 type  1   force =    -0.00000000    0.00000000    0.00000000
     atom    2 type  2   force =    -0.00000000    0.00000000    0.00047760
     atom    3 type  2   force =    -0.00000000    0.00000000   -0.00047760
     atom    4 type  3   force =    -0.00000000   -0.00000000   -0.00000000
     atom    5 type  3   force =    -0.00000000    0.00000000   -0.00014533
     atom    6 type  3   force =    -0.00000000   -0.00000000    0.00014533
     atom    7 type  4   force =     0.00000000   -0.00000000   -0.00061978
     atom    8 type  4   force =     0.00000000   -0.00000000    0.00061978
     atom    9 type  4   force =    -0.00000000   -0.00000000   -0.00114868
     atom   10 type  4   force =    -0.00000000   -0.00000000    0.00114868
     atom   11 type  4   force =    -0.00000000   -0.00000000   -0.00000000
     atom   12 type  4   force =     0.00000000    0.00000000    0.00271365
     atom   13 type  4   force =    -0.00000000    0.00000000   -0.00271365
     The Hubbard contrib.    to forces
     atom    1 type  1   force =     0.00000000    0.00000000    0.00000000
     atom    2 type  2   force =     0.00000000    0.00000000    0.00000000
     atom    3 type  2   force =     0.00000000    0.00000000    0.00000000
     atom    4 type  3   force =     0.00000000    0.00000000    0.00000000
     atom    5 type  3   force =     0.00000000    0.00000000    0.00000000
     atom    6 type  3   force =     0.00000000    0.00000000    0.00000000
     atom    7 type  4   force =     0.00000000    0.00000000    0.00000000
     atom    8 type  4   force =     0.00000000    0.00000000    0.00000000
     atom    9 type  4   force =     0.00000000    0.00000000    0.00000000
     atom   10 type  4   force =     0.00000000    0.00000000    0.00000000
     atom   11 type  4   force =     0.00000000    0.00000000    0.00000000
     atom   12 type  4   force =     0.00000000    0.00000000    0.00000000
     atom   13 type  4   force =     0.00000000    0.00000000    0.00000000
     The SCF correction term to forces
     atom    1 type  1   force =     0.00000000   -0.00000000   -0.00000000
     atom    2 type  2   force =     0.00000000   -0.00000000    0.00000406
     atom    3 type  2   force =    -0.00000000    0.00000000   -0.00000406
     atom    4 type  3   force =    -0.00000000   -0.00000000   -0.00000000
     atom    5 type  3   force =     0.00000000   -0.00000000    0.00001361
     atom    6 type  3   force =     0.00000000   -0.00000000   -0.00001361
     atom    7 type  4   force =     0.00000000   -0.00000000    0.00000198
     atom    8 type  4   force =     0.00000000    0.00000000   -0.00000198
     atom    9 type  4   force =    -0.00000000    0.00000000    0.00000377
     atom   10 type  4   force =     0.00000000   -0.00000000   -0.00000377
     atom   11 type  4   force =    -0.00000000   -0.00000000   -0.00000000
     atom   12 type  4   force =    -0.00000000    0.00000000    0.00000347
     atom   13 type  4   force =    -0.00000000   -0.00000000   -0.00000347

     Total force =     0.001062     Total SCF correction =     0.000022


     Computing stress (Cartesian axis) and pressure


     negative rho (up, down):  1.735E-01 0.000E+00
          total   stress  (Ry/bohr**3)                   (kbar)     P=        0.52
   0.00000399   0.00000000   0.00000000            0.59        0.00        0.00
   0.00000000   0.00000396   0.00000000            0.00        0.58        0.00
   0.00000000   0.00000000   0.00000260            0.00        0.00        0.38

     kinetic stress (kbar)  22415.39      0.00      0.00
                                0.00  22234.50      0.00
                                0.00      0.00  22434.21

     local   stress (kbar) -25929.89      0.00     -0.00
                                0.00 -42283.94     -0.00
                               -0.00     -0.00   5506.40

     nonloc. stress (kbar)  10823.42      0.00      0.00
                                0.00  10809.26      0.00
                                0.00      0.00  10826.88

     hartree stress (kbar)  32201.00      0.00     -0.00
                                0.00  39603.85     -0.00
                               -0.00     -0.00  17390.13

     exc-cor stress (kbar)   -469.24      0.00      0.00
                                0.00   -465.12     -0.00
                                0.00     -0.00   -475.17

     corecor stress (kbar)  -7611.62      0.00     -0.00
                                0.00  -7611.55      0.00
                               -0.00      0.00  -7612.19

     ewald   stress (kbar) -31428.46     -0.00     -0.00
                               -0.00 -22286.42     -0.00
                               -0.00     -0.00 -48069.88

     hubbard stress (kbar)      0.00      0.00      0.00
                                0.00      0.00      0.00
                                0.00      0.00      0.00

     DFT-D   stress (kbar)      0.00      0.00      0.00
                                0.00      0.00      0.00
                                0.00      0.00      0.00

     XDM     stress (kbar)      0.00      0.00      0.00
                                0.00      0.00      0.00
                                0.00      0.00      0.00

     dft-nl  stress (kbar)      0.00      0.00      0.00
                                0.00      0.00      0.00
                                0.00      0.00      0.00

     TS-vdW  stress (kbar)      0.00      0.00      0.00
                                0.00      0.00      0.00
                                0.00      0.00      0.00

     MDB     stress (kbar)      0.00      0.00      0.00
                                0.00      0.00      0.00
                                0.00      0.00      0.00

     3D-RISM stress (kbar)      0.00      0.00      0.00
                                0.00      0.00      0.00
                                0.00      0.00      0.00


     Writing all to output data dir ./YBCO.vc-relax/YBCO.vc-relax.save/
 
     init_run     :      6.08s CPU      6.50s WALL (       2 calls)
     electrons    :   1625.26s CPU   1783.19s WALL (      17 calls)
     update_pot   :     11.58s CPU     11.64s WALL (      15 calls)
     forces       :     27.07s CPU     29.93s WALL (      17 calls)
     stress       :    257.22s CPU    274.65s WALL (      17 calls)

     Called by init_run:
     wfcinit      :      2.49s CPU      2.54s WALL (       2 calls)
     wfcinit:atom :      0.05s CPU      0.05s WALL (      16 calls)
     wfcinit:wfcr :      2.25s CPU      2.31s WALL (      16 calls)
     potinit      :      0.11s CPU      0.15s WALL (       2 calls)
     hinit0       :      1.89s CPU      1.91s WALL (       2 calls)

     Called by electrons:
     c_bands      :    895.86s CPU    911.15s WALL (     346 calls)
     sum_band     :    453.28s CPU    533.41s WALL (     346 calls)
     v_of_rho     :     22.65s CPU     23.04s WALL (     362 calls)
     v_h          :      1.94s CPU      2.00s WALL (     362 calls)
     v_xc         :     22.62s CPU     23.03s WALL (     396 calls)
     newd         :    259.96s CPU    324.99s WALL (     362 calls)
     mix_rho      :      4.19s CPU      4.31s WALL (     346 calls)

     Called by c_bands:
     init_us_2    :     19.05s CPU     19.27s WALL (    5824 calls)
     init_us_2:cp :     19.02s CPU     19.25s WALL (    5824 calls)
     cegterg      :    796.12s CPU    810.85s WALL (    2768 calls)

     Called by sum_band:
     sum_band:wei :      0.20s CPU      0.21s WALL (     346 calls)
     sum_band:loo :    142.06s CPU    144.83s WALL (     346 calls)
     sum_band:buf :      3.19s CPU      3.22s WALL (    2768 calls)
     sum_band:ini :      9.05s CPU      9.11s WALL (    2768 calls)
     sum_band:cal :     32.11s CPU     32.61s WALL (    2768 calls)
     sum_band:bec :      0.24s CPU      0.24s WALL (    2768 calls)
     addusdens    :    306.66s CPU    383.06s WALL (     346 calls)
                                        0.00s GPU  (     346 calls)
     addusd:skk   :      1.37s CPU      1.50s WALL (    1384 calls)
                                        0.00s GPU  (    1384 calls)

     Called by *egterg:
     cdiaghg      :     29.36s CPU     29.57s WALL (    8073 calls)
     cegterg:over :     60.55s CPU     61.82s WALL (    5433 calls)
     cegterg:upda :     31.87s CPU     32.10s WALL (    5433 calls)
     cegterg:last :     70.86s CPU     70.93s WALL (    4730 calls)
     h_psi        :    490.94s CPU    501.87s WALL (    8217 calls)
     s_psi        :     71.83s CPU     72.46s WALL (    8217 calls)
     g_psi        :      2.31s CPU      2.32s WALL (    5433 calls)

     Called by h_psi:
     h_psi:calbec :     72.98s CPU     74.23s WALL (    8217 calls)
     vloc_psi     :    339.90s CPU    349.23s WALL (    8217 calls)
     add_vuspsi   :     71.74s CPU     71.90s WALL (    8217 calls)

     General routines
     calbec       :    114.02s CPU    116.81s WALL (   11665 calls)
     fft          :     13.14s CPU     13.60s WALL (    5113 calls)
     ffts         :      0.45s CPU      0.46s WALL (     708 calls)
     fftw         :    326.55s CPU    335.28s WALL ( 1170502 calls)
     interpolate  :      1.35s CPU      1.38s WALL (     362 calls)
 
     Parallel routines
 
     PWSCF        :  32m18.19s CPU  35m19.93s WALL

 
   This run was terminated on:  22:59:17  13Dec2023            

=------------------------------------------------------------------------------=
   JOB DONE.
=------------------------------------------------------------------------------=
