
     Program PWSCF v.7.2 starts on  3Dec2023 at 22:54:53 

     This program is part of the open-source Quantum ESPRESSO suite
     for quantum simulation of materials; please cite
         "P. Giannozzi et al., J. Phys.:Condens. Matter 21 395502 (2009);
         "P. Giannozzi et al., J. Phys.:Condens. Matter 29 465901 (2017);
         "P. Giannozzi et al., J. Chem. Phys. 152 154105 (2020);
          URL http://www.quantum-espresso.org", 
     in publications or presentations arising from this work. More details at
     http://www.quantum-espresso.org/quote

     Parallel version (MPI), running on     4 processors

     MPI processes distributed on     1 nodes
     10410 MiB available memory on the printing compute node when the environment starts
 
     Waiting for input...
     Reading input from standard input
Warning: card &CELL ignored
Warning: card / ignored

     Current dimensions of program PWSCF are:
     Max number of different atomic species (ntypx) = 10
     Max number of k-points (npk) =  40000
     Max angular momentum in pseudopotentials (lmaxx) =  4
     file Ba.pbe-spn-kjpaw_psl.1.0.0.UPF: wavefunction(s)  5S 6S renormalized
     file Cu.paw.z_11.ld1.psl.v1.0.0-low.upf: wavefunction(s)  4S 3D renormalized
     file Cu.paw.z_11.ld1.psl.v1.0.0-low.upf: wavefunction(s)  4S 3D renormalized
     file Cu.paw.z_11.ld1.psl.v1.0.0-low.upf: wavefunction(s)  4S 3D renormalized
     file O.pbe-n-kjpaw_psl.0.1.UPF: wavefunction(s)  2P renormalized
     Message from routine setup:
     using ibrav=0 with symmetry is DISCOURAGED, use correct ibrav instead
 
     R & G space division:  proc/nbgrp/npool/nimage =       4
     Subspace diagonalization in iterative solution of the eigenvalue problem:
     a serial algorithm will be used

 
     Parallelization info
     --------------------
     sticks:   dense  smooth     PW     G-vecs:    dense   smooth      PW
     Min         247     196     60                17893    12606    2056
     Max         248     197     61                17897    12615    2059
     Sum         989     785    241                71579    50433    8229
 
     Using Slab Decomposition
 


     bravais-lattice index     =            0
     lattice parameter (alat)  =       7.2193  a.u.
     unit-cell volume          =    1170.3381 (a.u.)^3
     number of atoms/cell      =           13
     number of atomic types    =            6
     number of electrons       =       106.00
     number of Kohn-Sham states=           53
     kinetic-energy cutoff     =      46.6495  Ry
     charge density cutoff     =     235.8754  Ry
     scf convergence threshold =      1.0E-09
     mixing beta               =       0.3000
     number of iterations used =            8  plain     mixing
     Exchange-correlation= SLA  PW   PBX  PBC
                           (   1   4   3   4   0   0   0)
     Hubbard projectors: ortho-atomic
     Hubbard parameters of DFT+U (Dudarev formulation) in eV:
     U(Cu1-3d) = 10.0000
     U(Cu2-3d) = 10.0000

     Internal variables: lda_plus_u = T, lda_plus_u_kind = 0

     celldm(1)=   7.219321  celldm(2)=   0.000000  celldm(3)=   0.000000
     celldm(4)=   0.000000  celldm(5)=   0.000000  celldm(6)=   0.000000

     crystal axes: (cart. coord. in units of alat)
               a(1) = (   1.000000   0.000000   0.000000 )  
               a(2) = (   0.000000   1.017061   0.000000 )  
               a(3) = (   0.000000   0.000000   3.058265 )  

     reciprocal axes: (cart. coord. in units 2 pi/alat)
               b(1) = (  1.000000  0.000000  0.000000 )  
               b(2) = (  0.000000  0.983225  0.000000 )  
               b(3) = (  0.000000  0.000000  0.326983 )  


     PseudoPot. # 1 for Y  read from file:
     ~/q-e/pseudo/Y_pbe_v1.uspp.F.UPF
     MD5 check sum: Not computed, couldn't open file
     Pseudo is Ultrasoft + core correction, Zval = 11.0
     Generated by new atomic code, or converted to UPF format
     Using radial grid of  885 points,  6 beta functions with: 
                l(1) =   0
                l(2) =   0
                l(3) =   1
                l(4) =   1
                l(5) =   2
                l(6) =   2
     Q(r) pseudized with  6 coefficients,  rinner =    1.200   1.200   1.200
                                                       1.200   1.200

     PseudoPot. # 2 for Ba read from file:
     ~/q-e/pseudo/Ba.pbe-spn-kjpaw_psl.1.0.0.UPF
     MD5 check sum: Not computed, couldn't open file
     Pseudo is Projector augmented-wave + core cor, Zval = 10.0
     Generated using "atomic" code by A. Dal Corso  v.5.1
     Shape of augmentation charge: PSQ
     Using radial grid of 1251 points,  7 beta functions with: 
                l(1) =   0
                l(2) =   0
                l(3) =   0
                l(4) =   1
                l(5) =   1
                l(6) =   2
                l(7) =   2
     Q(r) pseudized with 0 coefficients 


     PseudoPot. # 3 for Cu read from file:
     ~/q-e/pseudo/Cu.paw.z_11.ld1.psl.v1.0.0-low.upf
     MD5 check sum: Not computed, couldn't open file
     Pseudo is Projector augmented-wave + core cor, Zval = 11.0
     Generated using &quot;atomic&quot; code by A. Dal Corso  v.6.3MaX
     Shape of augmentation charge: PSQ
     Using radial grid of 1199 points,  6 beta functions with: 
                l(1) =   0
                l(2) =   0
                l(3) =   1
                l(4) =   1
                l(5) =   2
                l(6) =   2
     Q(r) pseudized with 0 coefficients 


     PseudoPot. # 4 for Cu read from file:
     ~/q-e/pseudo/Cu.paw.z_11.ld1.psl.v1.0.0-low.upf
     MD5 check sum: Not computed, couldn't open file
     Pseudo is Projector augmented-wave + core cor, Zval = 11.0
     Generated using &quot;atomic&quot; code by A. Dal Corso  v.6.3MaX
     Shape of augmentation charge: PSQ
     Using radial grid of 1199 points,  6 beta functions with: 
                l(1) =   0
                l(2) =   0
                l(3) =   1
                l(4) =   1
                l(5) =   2
                l(6) =   2
     Q(r) pseudized with 0 coefficients 


     PseudoPot. # 5 for Cu read from file:
     ~/q-e/pseudo/Cu.paw.z_11.ld1.psl.v1.0.0-low.upf
     MD5 check sum: Not computed, couldn't open file
     Pseudo is Projector augmented-wave + core cor, Zval = 11.0
     Generated using &quot;atomic&quot; code by A. Dal Corso  v.6.3MaX
     Shape of augmentation charge: PSQ
     Using radial grid of 1199 points,  6 beta functions with: 
                l(1) =   0
                l(2) =   0
                l(3) =   1
                l(4) =   1
                l(5) =   2
                l(6) =   2
     Q(r) pseudized with 0 coefficients 


     PseudoPot. # 6 for O  read from file:
     ~/q-e/pseudo/O.pbe-n-kjpaw_psl.0.1.UPF
     MD5 check sum: Not computed, couldn't open file
     Pseudo is Projector augmented-wave + core cor, Zval =  6.0
     Generated using "atomic" code by A. Dal Corso  v.5.0.99 svn rev. 10869
     Shape of augmentation charge: BESSEL
     Using radial grid of 1095 points,  4 beta functions with: 
                l(1) =   0
                l(2) =   0
                l(3) =   1
                l(4) =   1
     Q(r) pseudized with 0 coefficients 


     atomic species   valence    mass     pseudopotential
     Y                11.00    88.90584     Y ( 1.00)
     Ba               10.00   137.32700     Ba( 1.00)
     Cu               11.00    63.54600     Cu( 1.00)
     Cu1              11.00    63.54600     Cu( 1.00)
     Cu2              11.00    63.54600     Cu( 1.00)
     O                 6.00    15.99900     O ( 1.00)

      4 Sym. Ops. (no inversion) found



   Cartesian axes

     site n.     atom                  positions (alat units)
         1        Y      tau(   1) = (   0.5000000   0.5085307   1.5291325  )
         2        Ba     tau(   2) = (   0.5000000   0.5085307   0.5511976  )
         3        Ba     tau(   3) = (   0.5000000   0.5085307   2.5070675  )
         4        Cu     tau(   4) = (   0.0000000   0.0000000   0.0000000  )
         5        Cu1    tau(   5) = (   0.0000000   0.0000000   1.0793607  )
         6        Cu2    tau(   6) = (   0.0000000   0.0000000   1.9789043  )
         7        O      tau(   7) = (   0.0000000   0.5085307   0.0000000  )
         8        O      tau(   8) = (   0.5000000   0.0000000   1.1578857  )
         9        O      tau(   9) = (   0.5000000   0.0000000   1.9003793  )
        10        O      tau(  10) = (   0.0000000   0.5085307   1.1570409  )
        11        O      tau(  11) = (   0.0000000   0.5085307   1.9012242  )
        12        O      tau(  12) = (   0.0000000   0.0000000   0.4916239  )
        13        O      tau(  13) = (   0.0000000   0.0000000   2.5666411  )

     number of k points=    27
                       cart. coord. in units 2pi/alat
        k(    1) = (   0.0000000   0.0000000   0.0000000), wk =   0.0312500
        k(    2) = (   0.0000000   0.0000000   0.0817457), wk =   0.0625000
        k(    3) = (   0.0000000   0.0000000  -0.1634914), wk =   0.0312500
        k(    4) = (   0.0000000   0.2458062   0.0000000), wk =   0.0625000
        k(    5) = (   0.0000000   0.2458062   0.0817457), wk =   0.1250000
        k(    6) = (   0.0000000   0.2458062  -0.1634914), wk =   0.0625000
        k(    7) = (   0.0000000  -0.4916124   0.0000000), wk =   0.0312500
        k(    8) = (   0.0000000  -0.4916124   0.0817457), wk =   0.0625000
        k(    9) = (   0.0000000  -0.4916124  -0.1634914), wk =   0.0312500
        k(   10) = (   0.2500000   0.0000000   0.0000000), wk =   0.0625000
        k(   11) = (   0.2500000   0.0000000   0.0817457), wk =   0.1250000
        k(   12) = (   0.2500000   0.0000000  -0.1634914), wk =   0.0625000
        k(   13) = (   0.2500000   0.2458062   0.0000000), wk =   0.1250000
        k(   14) = (   0.2500000   0.2458062   0.0817457), wk =   0.2500000
        k(   15) = (   0.2500000   0.2458062  -0.1634914), wk =   0.1250000
        k(   16) = (   0.2500000  -0.4916124   0.0000000), wk =   0.0625000
        k(   17) = (   0.2500000  -0.4916124   0.0817457), wk =   0.1250000
        k(   18) = (   0.2500000  -0.4916124  -0.1634914), wk =   0.0625000
        k(   19) = (  -0.5000000   0.0000000   0.0000000), wk =   0.0312500
        k(   20) = (  -0.5000000   0.0000000   0.0817457), wk =   0.0625000
        k(   21) = (  -0.5000000   0.0000000  -0.1634914), wk =   0.0312500
        k(   22) = (  -0.5000000   0.2458062   0.0000000), wk =   0.0625000
        k(   23) = (  -0.5000000   0.2458062   0.0817457), wk =   0.1250000
        k(   24) = (  -0.5000000   0.2458062  -0.1634914), wk =   0.0625000
        k(   25) = (  -0.5000000  -0.4916124   0.0000000), wk =   0.0312500
        k(   26) = (  -0.5000000  -0.4916124   0.0817457), wk =   0.0625000
        k(   27) = (  -0.5000000  -0.4916124  -0.1634914), wk =   0.0312500

     Dense  grid:    71579 G-vectors     FFT dimensions: (  36,  36, 108)

     Smooth grid:    50433 G-vectors     FFT dimensions: (  32,  32, 100)

     Estimated max dynamical RAM per process >     130.09 MB

     Estimated total dynamical RAM >     520.36 MB

     Check: negative core charge=   -0.000010

     Initial potential from superposition of free atoms

     starting charge     105.9608, renormalised to     106.0000

     negative rho (up, down):  4.388E-02 0.000E+00

     STARTING HUBBARD OCCUPATIONS:

     =================== HUBBARD OCCUPATIONS ===================
     ------------------------ ATOM    5 ------------------------
     Tr[ns(  5)] =   9.50000
     eigenvalues:
       0.950  0.950  0.950  0.950  0.950
     eigenvectors (columns):
       1.000  0.000  0.000  0.000  0.000
       0.000  1.000  0.000  0.000  0.000
       0.000  0.000  1.000  0.000  0.000
       0.000  0.000  0.000  1.000  0.000
       0.000  0.000  0.000  0.000  1.000
     occupation matrix ns (before diag.):
       0.950  0.000  0.000  0.000  0.000
       0.000  0.950  0.000  0.000  0.000
       0.000  0.000  0.950  0.000  0.000
       0.000  0.000  0.000  0.950  0.000
       0.000  0.000  0.000  0.000  0.950
     ------------------------ ATOM    6 ------------------------
     Tr[ns(  6)] =   9.50000
     eigenvalues:
       0.950  0.950  0.950  0.950  0.950
     eigenvectors (columns):
       1.000  0.000  0.000  0.000  0.000
       0.000  1.000  0.000  0.000  0.000
       0.000  0.000  1.000  0.000  0.000
       0.000  0.000  0.000  1.000  0.000
       0.000  0.000  0.000  0.000  1.000
     occupation matrix ns (before diag.):
       0.950  0.000  0.000  0.000  0.000
       0.000  0.950  0.000  0.000  0.000
       0.000  0.000  0.950  0.000  0.000
       0.000  0.000  0.000  0.950  0.000
       0.000  0.000  0.000  0.000  0.950

     Number of occupied Hubbard levels =   19.0000

     Atomic wfc used for Hubbard projectors are orthogonalized

     Starting wfcs are   78 randomized atomic wfcs
     Checking if some PAW data can be deallocated... 

     total cpu time spent up to now is        1.9 secs

     Self-consistent Calculation

     iteration #  1     ecut=    46.65 Ry     beta= 0.30
     Davidson diagonalization with overlap
     ethr =  1.00E-02,  avg # of iterations =  1.9

     =================== HUBBARD OCCUPATIONS ===================
     ------------------------ ATOM    5 ------------------------
     Tr[ns(  5)] =   9.92563
     eigenvalues:
       0.981  0.995  0.995  0.995  0.997
     eigenvectors (columns):
       0.995  0.000  0.000 -0.099 -0.000
       0.000 -0.000 -1.000 -0.000  0.000
       0.000 -1.000  0.000 -0.000  0.000
      -0.099  0.000  0.000 -0.995 -0.000
      -0.000  0.000  0.000 -0.000  1.000
     occupation matrix ns (before diag.):
       0.982 -0.000 -0.000  0.001  0.000
      -0.000  0.995 -0.000  0.000  0.000
      -0.000 -0.000  0.995  0.000  0.000
       0.001  0.000  0.000  0.995 -0.000
       0.000  0.000  0.000 -0.000  0.997
     ------------------------ ATOM    6 ------------------------
     Tr[ns(  6)] =   9.92561
     eigenvalues:
       0.981  0.995  0.995  0.995  0.997
     eigenvectors (columns):
       0.996 -0.000  0.000  0.094 -0.000
       0.000  0.000 -1.000  0.000  0.000
       0.000  1.000  0.000  0.000  0.000
      -0.094 -0.000  0.000  0.996 -0.000
      -0.000 -0.000  0.000  0.000  1.000
     occupation matrix ns (before diag.):
       0.981 -0.000 -0.000  0.001  0.000
      -0.000  0.995 -0.000  0.000  0.000
      -0.000 -0.000  0.995  0.000  0.000
       0.001  0.000  0.000  0.995 -0.000
       0.000  0.000  0.000 -0.000  0.997

     Number of occupied Hubbard levels =   19.8512

     negative rho (up, down):  4.414E-02 0.000E+00

     total cpu time spent up to now is        3.9 secs

     total energy              =   -1884.70452787 Ry
     estimated scf accuracy    <      15.28779675 Ry

     iteration #  2     ecut=    46.65 Ry     beta= 0.30
     Davidson diagonalization with overlap
     ethr =  1.00E-02,  avg # of iterations =  7.6

     negative rho (up, down):  4.419E-02 0.000E+00

     total cpu time spent up to now is        7.4 secs

     total energy              =   -1882.74604943 Ry
     estimated scf accuracy    <     128.48398889 Ry

     iteration #  3     ecut=    46.65 Ry     beta= 0.30
     Davidson diagonalization with overlap
     ethr =  1.00E-02,  avg # of iterations =  9.2

     negative rho (up, down):  4.432E-02 0.000E+00

     total cpu time spent up to now is       10.7 secs

     total energy              =   -1890.91051865 Ry
     estimated scf accuracy    <       4.30771037 Ry

     iteration #  4     ecut=    46.65 Ry     beta= 0.30
     Davidson diagonalization with overlap
     ethr =  4.06E-03,  avg # of iterations =  2.2

     negative rho (up, down):  4.458E-02 0.000E+00

     total cpu time spent up to now is       12.8 secs

     total energy              =   -1890.30580453 Ry
     estimated scf accuracy    <       1.72515867 Ry

     iteration #  5     ecut=    46.65 Ry     beta= 0.30
     Davidson diagonalization with overlap
     ethr =  1.63E-03,  avg # of iterations =  6.2

     negative rho (up, down):  4.465E-02 0.000E+00

     total cpu time spent up to now is       15.4 secs

     total energy              =   -1890.76480650 Ry
     estimated scf accuracy    <       1.51229606 Ry

     iteration #  6     ecut=    46.65 Ry     beta= 0.30
     Davidson diagonalization with overlap
     ethr =  1.43E-03,  avg # of iterations =  3.6

     negative rho (up, down):  4.473E-02 0.000E+00

     total cpu time spent up to now is       17.7 secs

     total energy              =   -1890.90942379 Ry
     estimated scf accuracy    <       0.26805399 Ry

     iteration #  7     ecut=    46.65 Ry     beta= 0.30
     Davidson diagonalization with overlap
     ethr =  2.53E-04,  avg # of iterations =  6.2

     negative rho (up, down):  4.471E-02 0.000E+00

     total cpu time spent up to now is       20.2 secs

     total energy              =   -1891.03182839 Ry
     estimated scf accuracy    <       0.12592394 Ry

     iteration #  8     ecut=    46.65 Ry     beta= 0.30
     Davidson diagonalization with overlap
     c_bands:  1 eigenvalues not converged
     ethr =  1.19E-04,  avg # of iterations =  8.7

     negative rho (up, down):  4.474E-02 0.000E+00

     total cpu time spent up to now is       23.1 secs

     total energy              =   -1891.11326071 Ry
     estimated scf accuracy    <       0.42187653 Ry

     iteration #  9     ecut=    46.65 Ry     beta= 0.30
     Davidson diagonalization with overlap
     ethr =  1.19E-04,  avg # of iterations =  1.1

     negative rho (up, down):  4.495E-02 0.000E+00

     total cpu time spent up to now is       25.4 secs

     total energy              =   -1891.05476201 Ry
     estimated scf accuracy    <       0.37521389 Ry

     iteration # 10     ecut=    46.65 Ry     beta= 0.30
     Davidson diagonalization with overlap
     ethr =  1.19E-04,  avg # of iterations =  8.4

     negative rho (up, down):  4.497E-02 0.000E+00

     total cpu time spent up to now is       28.6 secs

     total energy              =   -1891.16607419 Ry
     estimated scf accuracy    <       1.33139161 Ry

     iteration # 11     ecut=    46.65 Ry     beta= 0.30
     Davidson diagonalization with overlap
     ethr =  1.19E-04,  avg # of iterations =  1.0

     negative rho (up, down):  4.498E-02 0.000E+00

     total cpu time spent up to now is       30.8 secs

     total energy              =   -1891.14269030 Ry
     estimated scf accuracy    <       1.31982509 Ry

     iteration # 12     ecut=    46.65 Ry     beta= 0.30
     Davidson diagonalization with overlap
     ethr =  1.19E-04,  avg # of iterations =  3.7

     negative rho (up, down):  4.501E-02 0.000E+00

     total cpu time spent up to now is       33.4 secs

     total energy              =   -1891.13996104 Ry
     estimated scf accuracy    <       1.09138272 Ry

     iteration # 13     ecut=    46.65 Ry     beta= 0.30
     Davidson diagonalization with overlap
     ethr =  1.19E-04,  avg # of iterations =  1.8

     negative rho (up, down):  4.517E-02 0.000E+00

     total cpu time spent up to now is       35.7 secs

     total energy              =   -1891.15059069 Ry
     estimated scf accuracy    <       0.99141726 Ry

     iteration # 14     ecut=    46.65 Ry     beta= 0.30
     Davidson diagonalization with overlap
     ethr =  1.19E-04,  avg # of iterations =  7.5

     negative rho (up, down):  4.498E-02 0.000E+00

     total cpu time spent up to now is       38.9 secs

     total energy              =   -1891.07925035 Ry
     estimated scf accuracy    <       1.37509466 Ry

     iteration # 15     ecut=    46.65 Ry     beta= 0.30
     Davidson diagonalization with overlap
     ethr =  1.19E-04,  avg # of iterations =  7.2

     negative rho (up, down):  4.510E-02 0.000E+00

     total cpu time spent up to now is       42.3 secs

     total energy              =   -1891.16560615 Ry
     estimated scf accuracy    <       0.87789000 Ry

     iteration # 16     ecut=    46.65 Ry     beta= 0.30
     Davidson diagonalization with overlap
     ethr =  1.19E-04,  avg # of iterations =  3.9

     negative rho (up, down):  4.513E-02 0.000E+00

     total cpu time spent up to now is       44.9 secs

     total energy              =   -1891.16406202 Ry
     estimated scf accuracy    <       1.18746987 Ry

     iteration # 17     ecut=    46.65 Ry     beta= 0.30
     Davidson diagonalization with overlap
     ethr =  1.19E-04,  avg # of iterations =  2.0

     negative rho (up, down):  4.520E-02 0.000E+00

     total cpu time spent up to now is       47.3 secs

     total energy              =   -1891.12076995 Ry
     estimated scf accuracy    <       1.27845175 Ry

     iteration # 18     ecut=    46.65 Ry     beta= 0.30
     Davidson diagonalization with overlap
     ethr =  1.19E-04,  avg # of iterations =  4.3

     negative rho (up, down):  4.551E-02 0.000E+00

     total cpu time spent up to now is       49.8 secs

     total energy              =   -1890.96974928 Ry
     estimated scf accuracy    <       0.93915596 Ry

     iteration # 19     ecut=    46.65 Ry     beta= 0.30
     Davidson diagonalization with overlap
     ethr =  1.19E-04,  avg # of iterations = 10.9

     negative rho (up, down):  4.531E-02 0.000E+00

     total cpu time spent up to now is       53.9 secs

     total energy              =   -1891.09305802 Ry
     estimated scf accuracy    <       1.53885585 Ry

     iteration # 20     ecut=    46.65 Ry     beta= 0.30
     Davidson diagonalization with overlap
     ethr =  1.19E-04,  avg # of iterations =  5.9

     negative rho (up, down):  4.531E-02 0.000E+00

     total cpu time spent up to now is       56.8 secs

     total energy              =   -1891.11045949 Ry
     estimated scf accuracy    <       0.64037217 Ry

     iteration # 21     ecut=    46.65 Ry     beta= 0.30
     Davidson diagonalization with overlap
     ethr =  1.19E-04,  avg # of iterations =  1.0

     negative rho (up, down):  4.529E-02 0.000E+00

     total cpu time spent up to now is       59.0 secs

     total energy              =   -1891.09142777 Ry
     estimated scf accuracy    <       0.58926928 Ry

     iteration # 22     ecut=    46.65 Ry     beta= 0.30
     Davidson diagonalization with overlap
     ethr =  1.19E-04,  avg # of iterations =  3.1

     negative rho (up, down):  4.529E-02 0.000E+00

     total cpu time spent up to now is       61.5 secs

     total energy              =   -1891.07358616 Ry
     estimated scf accuracy    <       0.42921496 Ry

     iteration # 23     ecut=    46.65 Ry     beta= 0.30
     Davidson diagonalization with overlap
     ethr =  1.19E-04,  avg # of iterations =  5.0

     negative rho (up, down):  4.528E-02 0.000E+00

     total cpu time spent up to now is       64.1 secs

     total energy              =   -1891.08588809 Ry
     estimated scf accuracy    <       0.05671511 Ry

     iteration # 24     ecut=    46.65 Ry     beta= 0.30
     Davidson diagonalization with overlap
     c_bands:  1 eigenvalues not converged
     ethr =  5.35E-05,  avg # of iterations =  5.4

     negative rho (up, down):  4.528E-02 0.000E+00

     total cpu time spent up to now is       66.7 secs

     total energy              =   -1891.10288433 Ry
     estimated scf accuracy    <       0.28863729 Ry

     iteration # 25     ecut=    46.65 Ry     beta= 0.30
     Davidson diagonalization with overlap
     ethr =  5.35E-05,  avg # of iterations =  5.6

     negative rho (up, down):  4.529E-02 0.000E+00

     total cpu time spent up to now is       69.4 secs

     total energy              =   -1891.10552252 Ry
     estimated scf accuracy    <       0.12890090 Ry

     iteration # 26     ecut=    46.65 Ry     beta= 0.30
     Davidson diagonalization with overlap
     ethr =  5.35E-05,  avg # of iterations =  1.6

     negative rho (up, down):  4.528E-02 0.000E+00

     total cpu time spent up to now is       71.9 secs

     total energy              =   -1891.10451558 Ry
     estimated scf accuracy    <       0.11521633 Ry

     iteration # 27     ecut=    46.65 Ry     beta= 0.30
     Davidson diagonalization with overlap
     ethr =  5.35E-05,  avg # of iterations =  1.6

     negative rho (up, down):  4.527E-02 0.000E+00

     total cpu time spent up to now is       74.4 secs

     total energy              =   -1891.10018854 Ry
     estimated scf accuracy    <       0.10075350 Ry

     iteration # 28     ecut=    46.65 Ry     beta= 0.30
     Davidson diagonalization with overlap
     ethr =  5.35E-05,  avg # of iterations =  4.0

     negative rho (up, down):  4.527E-02 0.000E+00

     total cpu time spent up to now is       77.1 secs

     total energy              =   -1891.10295197 Ry
     estimated scf accuracy    <       0.03789654 Ry

     iteration # 29     ecut=    46.65 Ry     beta= 0.30
     Davidson diagonalization with overlap
     ethr =  3.58E-05,  avg # of iterations =  3.2

     negative rho (up, down):  4.527E-02 0.000E+00

     total cpu time spent up to now is       79.5 secs

     total energy              =   -1891.10731032 Ry
     estimated scf accuracy    <       0.02348855 Ry

     iteration # 30     ecut=    46.65 Ry     beta= 0.30
     Davidson diagonalization with overlap
     ethr =  2.22E-05,  avg # of iterations =  4.5

     negative rho (up, down):  4.527E-02 0.000E+00

     total cpu time spent up to now is       82.0 secs

     total energy              =   -1891.10977310 Ry
     estimated scf accuracy    <       0.13150023 Ry

     iteration # 31     ecut=    46.65 Ry     beta= 0.30
     Davidson diagonalization with overlap
     ethr =  2.22E-05,  avg # of iterations =  1.1

     negative rho (up, down):  4.526E-02 0.000E+00

     total cpu time spent up to now is       84.2 secs

     total energy              =   -1891.11145219 Ry
     estimated scf accuracy    <       0.12718936 Ry

     iteration # 32     ecut=    46.65 Ry     beta= 0.30
     Davidson diagonalization with overlap
     c_bands:  1 eigenvalues not converged
     c_bands:  1 eigenvalues not converged
     ethr =  2.22E-05,  avg # of iterations =  3.1

     negative rho (up, down):  4.526E-02 0.000E+00

     total cpu time spent up to now is       86.6 secs

     total energy              =   -1891.11348844 Ry
     estimated scf accuracy    <       0.27702681 Ry

     iteration # 33     ecut=    46.65 Ry     beta= 0.30
     Davidson diagonalization with overlap
     c_bands:  1 eigenvalues not converged
     ethr =  2.22E-05,  avg # of iterations =  2.0

     negative rho (up, down):  4.527E-02 0.000E+00

     total cpu time spent up to now is       88.9 secs

     total energy              =   -1891.10567150 Ry
     estimated scf accuracy    <       0.32210700 Ry

     iteration # 34     ecut=    46.65 Ry     beta= 0.30
     Davidson diagonalization with overlap
     c_bands:  1 eigenvalues not converged
     ethr =  2.22E-05,  avg # of iterations =  4.9

     negative rho (up, down):  4.527E-02 0.000E+00

     total cpu time spent up to now is       91.4 secs

     total energy              =   -1891.10627816 Ry
     estimated scf accuracy    <       0.09243202 Ry

     iteration # 35     ecut=    46.65 Ry     beta= 0.30
     Davidson diagonalization with overlap
     ethr =  2.22E-05,  avg # of iterations =  1.4

     negative rho (up, down):  4.527E-02 0.000E+00

     total cpu time spent up to now is       93.7 secs

     total energy              =   -1891.10364813 Ry
     estimated scf accuracy    <       0.08425445 Ry

     iteration # 36     ecut=    46.65 Ry     beta= 0.30
     Davidson diagonalization with overlap
     ethr =  2.22E-05,  avg # of iterations =  7.9

     negative rho (up, down):  4.526E-02 0.000E+00

     total cpu time spent up to now is       96.5 secs

     total energy              =   -1891.10865675 Ry
     estimated scf accuracy    <       0.02533764 Ry

     iteration # 37     ecut=    46.65 Ry     beta= 0.30
     Davidson diagonalization with overlap
     ethr =  2.22E-05,  avg # of iterations =  1.4

     negative rho (up, down):  4.526E-02 0.000E+00

     total cpu time spent up to now is       98.8 secs

     total energy              =   -1891.10880168 Ry
     estimated scf accuracy    <       0.02585065 Ry

     iteration # 38     ecut=    46.65 Ry     beta= 0.30
     Davidson diagonalization with overlap
     ethr =  2.22E-05,  avg # of iterations =  2.5

     negative rho (up, down):  4.525E-02 0.000E+00

     total cpu time spent up to now is      101.2 secs

     total energy              =   -1891.11023725 Ry
     estimated scf accuracy    <       0.09372012 Ry

     iteration # 39     ecut=    46.65 Ry     beta= 0.30
     Davidson diagonalization with overlap
     ethr =  2.22E-05,  avg # of iterations =  5.3

     negative rho (up, down):  4.526E-02 0.000E+00

     total cpu time spent up to now is      104.1 secs

     total energy              =   -1891.10400261 Ry
     estimated scf accuracy    <       0.18310058 Ry

     iteration # 40     ecut=    46.65 Ry     beta= 0.30
     Davidson diagonalization with overlap
     ethr =  2.22E-05,  avg # of iterations =  5.3

     negative rho (up, down):  4.526E-02 0.000E+00

     total cpu time spent up to now is      106.8 secs

     total energy              =   -1891.10566058 Ry
     estimated scf accuracy    <       0.02145572 Ry

     iteration # 41     ecut=    46.65 Ry     beta= 0.30
     Davidson diagonalization with overlap
     ethr =  2.02E-05,  avg # of iterations =  3.1

     negative rho (up, down):  4.526E-02 0.000E+00

     total cpu time spent up to now is      109.2 secs

     total energy              =   -1891.10695406 Ry
     estimated scf accuracy    <       0.00167199 Ry

     iteration # 42     ecut=    46.65 Ry     beta= 0.30
     Davidson diagonalization with overlap
     ethr =  1.58E-06,  avg # of iterations =  8.4

     negative rho (up, down):  4.526E-02 0.000E+00

     total cpu time spent up to now is      112.1 secs

     total energy              =   -1891.10617360 Ry
     estimated scf accuracy    <       0.06952106 Ry

     iteration # 43     ecut=    46.65 Ry     beta= 0.30
     Davidson diagonalization with overlap
     ethr =  1.58E-06,  avg # of iterations =  9.0

     negative rho (up, down):  4.526E-02 0.000E+00

     total cpu time spent up to now is      115.1 secs

     total energy              =   -1891.10745641 Ry
     estimated scf accuracy    <       0.00566303 Ry

     iteration # 44     ecut=    46.65 Ry     beta= 0.30
     Davidson diagonalization with overlap
     ethr =  1.58E-06,  avg # of iterations =  1.1

     negative rho (up, down):  4.526E-02 0.000E+00

     total cpu time spent up to now is      117.3 secs

     total energy              =   -1891.10673488 Ry
     estimated scf accuracy    <       0.00531976 Ry

     iteration # 45     ecut=    46.65 Ry     beta= 0.30
     Davidson diagonalization with overlap
     ethr =  1.58E-06,  avg # of iterations = 10.7

     negative rho (up, down):  4.526E-02 0.000E+00

     total cpu time spent up to now is      120.6 secs

     total energy              =   -1891.10825403 Ry
     estimated scf accuracy    <       0.09787203 Ry

     iteration # 46     ecut=    46.65 Ry     beta= 0.30
     Davidson diagonalization with overlap
     ethr =  1.58E-06,  avg # of iterations =  8.3

     negative rho (up, down):  4.526E-02 0.000E+00

     total cpu time spent up to now is      123.4 secs

     total energy              =   -1891.10904934 Ry
     estimated scf accuracy    <       0.01513060 Ry

     iteration # 47     ecut=    46.65 Ry     beta= 0.30
     Davidson diagonalization with overlap
     ethr =  1.58E-06,  avg # of iterations =  3.4

     negative rho (up, down):  4.526E-02 0.000E+00

     total cpu time spent up to now is      125.8 secs

     total energy              =   -1891.10919630 Ry
     estimated scf accuracy    <       0.01275318 Ry

     iteration # 48     ecut=    46.65 Ry     beta= 0.30
     Davidson diagonalization with overlap
     ethr =  1.58E-06,  avg # of iterations =  9.7

     negative rho (up, down):  4.526E-02 0.000E+00

     total cpu time spent up to now is      128.8 secs

     total energy              =   -1891.10957533 Ry
     estimated scf accuracy    <       0.06434230 Ry

     iteration # 49     ecut=    46.65 Ry     beta= 0.30
     Davidson diagonalization with overlap
     ethr =  1.58E-06,  avg # of iterations =  1.1

     negative rho (up, down):  4.526E-02 0.000E+00

     total cpu time spent up to now is      131.1 secs

     total energy              =   -1891.10947931 Ry
     estimated scf accuracy    <       0.06319220 Ry

     iteration # 50     ecut=    46.65 Ry     beta= 0.30
     Davidson diagonalization with overlap
     ethr =  1.58E-06,  avg # of iterations =  1.3

     negative rho (up, down):  4.526E-02 0.000E+00

     total cpu time spent up to now is      133.5 secs

     total energy              =   -1891.10814434 Ry
     estimated scf accuracy    <       0.06211908 Ry

     iteration # 51     ecut=    46.65 Ry     beta= 0.30
     Davidson diagonalization with overlap
     ethr =  1.58E-06,  avg # of iterations = 10.1

     negative rho (up, down):  4.526E-02 0.000E+00

     total cpu time spent up to now is      136.8 secs

     total energy              =   -1891.11001168 Ry
     estimated scf accuracy    <       0.04766912 Ry

     iteration # 52     ecut=    46.65 Ry     beta= 0.30
     Davidson diagonalization with overlap
     ethr =  1.58E-06,  avg # of iterations =  1.0

     negative rho (up, down):  4.526E-02 0.000E+00

     total cpu time spent up to now is      139.0 secs

     total energy              =   -1891.10953780 Ry
     estimated scf accuracy    <       0.04762866 Ry

     iteration # 53     ecut=    46.65 Ry     beta= 0.30
     Davidson diagonalization with overlap
     ethr =  1.58E-06,  avg # of iterations =  1.9

     negative rho (up, down):  4.526E-02 0.000E+00

     total cpu time spent up to now is      141.3 secs

     total energy              =   -1891.10720099 Ry
     estimated scf accuracy    <       0.04460134 Ry

     iteration # 54     ecut=    46.65 Ry     beta= 0.30
     Davidson diagonalization with overlap
     c_bands:  1 eigenvalues not converged
     c_bands:  1 eigenvalues not converged
     ethr =  1.58E-06,  avg # of iterations = 10.0

     negative rho (up, down):  4.526E-02 0.000E+00

     total cpu time spent up to now is      145.1 secs

     total energy              =   -1891.10542293 Ry
     estimated scf accuracy    <       0.05769324 Ry

     iteration # 55     ecut=    46.65 Ry     beta= 0.30
     Davidson diagonalization with overlap
     c_bands:  1 eigenvalues not converged
     ethr =  1.58E-06,  avg # of iterations = 10.7

     negative rho (up, down):  4.526E-02 0.000E+00

     total cpu time spent up to now is      148.6 secs

     total energy              =   -1891.10923109 Ry
     estimated scf accuracy    <       0.10486045 Ry

     iteration # 56     ecut=    46.65 Ry     beta= 0.30
     Davidson diagonalization with overlap
     ethr =  1.58E-06,  avg # of iterations =  2.8

     negative rho (up, down):  4.526E-02 0.000E+00

     total cpu time spent up to now is      151.0 secs

     total energy              =   -1891.11035152 Ry
     estimated scf accuracy    <       0.09457178 Ry

     iteration # 57     ecut=    46.65 Ry     beta= 0.30
     Davidson diagonalization with overlap
     c_bands:  1 eigenvalues not converged
     c_bands:  1 eigenvalues not converged
     ethr =  1.58E-06,  avg # of iterations =  8.8

     negative rho (up, down):  4.526E-02 0.000E+00

     total cpu time spent up to now is      154.0 secs

     total energy              =   -1891.10852311 Ry
     estimated scf accuracy    <       0.17987912 Ry

     iteration # 58     ecut=    46.65 Ry     beta= 0.30
     Davidson diagonalization with overlap
     c_bands:  1 eigenvalues not converged
     c_bands:  1 eigenvalues not converged
     ethr =  1.58E-06,  avg # of iterations =  7.1

     negative rho (up, down):  4.526E-02 0.000E+00

     total cpu time spent up to now is      156.9 secs

     total energy              =   -1891.10688390 Ry
     estimated scf accuracy    <       0.09860848 Ry

     iteration # 59     ecut=    46.65 Ry     beta= 0.30
     Davidson diagonalization with overlap
     c_bands:  1 eigenvalues not converged
     ethr =  1.58E-06,  avg # of iterations = 11.4

     negative rho (up, down):  4.526E-02 0.000E+00

     total cpu time spent up to now is      160.1 secs

     total energy              =   -1891.10864502 Ry
     estimated scf accuracy    <       0.00922880 Ry

     iteration # 60     ecut=    46.65 Ry     beta= 0.30
     Davidson diagonalization with overlap
     ethr =  1.58E-06,  avg # of iterations =  1.0

     negative rho (up, down):  4.526E-02 0.000E+00

     total cpu time spent up to now is      162.3 secs

     total energy              =   -1891.10844389 Ry
     estimated scf accuracy    <       0.00909094 Ry

     iteration # 61     ecut=    46.65 Ry     beta= 0.30
     Davidson diagonalization with overlap
     ethr =  1.58E-06,  avg # of iterations =  1.1

     negative rho (up, down):  4.526E-02 0.000E+00

     total cpu time spent up to now is      164.6 secs

     total energy              =   -1891.10830356 Ry
     estimated scf accuracy    <       0.00802845 Ry

     iteration # 62     ecut=    46.65 Ry     beta= 0.30
     Davidson diagonalization with overlap
     ethr =  1.58E-06,  avg # of iterations =  1.3

     negative rho (up, down):  4.526E-02 0.000E+00

     total cpu time spent up to now is      167.0 secs

     total energy              =   -1891.10798059 Ry
     estimated scf accuracy    <       0.00711895 Ry

     iteration # 63     ecut=    46.65 Ry     beta= 0.30
     Davidson diagonalization with overlap
     c_bands:  1 eigenvalues not converged
     ethr =  1.58E-06,  avg # of iterations =  5.6

     negative rho (up, down):  4.526E-02 0.000E+00

     total cpu time spent up to now is      169.7 secs

     total energy              =   -1891.10821405 Ry
     estimated scf accuracy    <       0.00050454 Ry

     iteration # 64     ecut=    46.65 Ry     beta= 0.30
     Davidson diagonalization with overlap
     c_bands:  1 eigenvalues not converged
     ethr =  4.76E-07,  avg # of iterations =  9.9

     negative rho (up, down):  4.526E-02 0.000E+00

     total cpu time spent up to now is      172.6 secs

     total energy              =   -1891.10812149 Ry
     estimated scf accuracy    <       0.01128761 Ry

     iteration # 65     ecut=    46.65 Ry     beta= 0.30
     Davidson diagonalization with overlap
     c_bands:  1 eigenvalues not converged
     c_bands:  1 eigenvalues not converged
     ethr =  4.76E-07,  avg # of iterations = 10.7

     negative rho (up, down):  4.526E-02 0.000E+00

     total cpu time spent up to now is      175.7 secs

     total energy              =   -1891.10839907 Ry
     estimated scf accuracy    <       0.00522810 Ry

     iteration # 66     ecut=    46.65 Ry     beta= 0.30
     Davidson diagonalization with overlap
     ethr =  4.76E-07,  avg # of iterations =  1.0

     negative rho (up, down):  4.526E-02 0.000E+00

     total cpu time spent up to now is      177.9 secs

     total energy              =   -1891.10835250 Ry
     estimated scf accuracy    <       0.00509657 Ry

     iteration # 67     ecut=    46.65 Ry     beta= 0.30
     Davidson diagonalization with overlap
     ethr =  4.76E-07,  avg # of iterations =  2.0

     negative rho (up, down):  4.526E-02 0.000E+00

     total cpu time spent up to now is      180.2 secs

     total energy              =   -1891.10794598 Ry
     estimated scf accuracy    <       0.00510296 Ry

     iteration # 68     ecut=    46.65 Ry     beta= 0.30
     Davidson diagonalization with overlap
     ethr =  4.76E-07,  avg # of iterations =  7.6

     negative rho (up, down):  4.526E-02 0.000E+00

     total cpu time spent up to now is      183.2 secs

     total energy              =   -1891.10831310 Ry
     estimated scf accuracy    <       0.00333042 Ry

     iteration # 69     ecut=    46.65 Ry     beta= 0.30
     Davidson diagonalization with overlap
     ethr =  4.76E-07,  avg # of iterations =  1.0

     negative rho (up, down):  4.526E-02 0.000E+00

     total cpu time spent up to now is      185.4 secs

     total energy              =   -1891.10839465 Ry
     estimated scf accuracy    <       0.00353893 Ry

     iteration # 70     ecut=    46.65 Ry     beta= 0.30
     Davidson diagonalization with overlap
     ethr =  4.76E-07,  avg # of iterations =  4.6

     negative rho (up, down):  4.526E-02 0.000E+00

     total cpu time spent up to now is      187.9 secs

     total energy              =   -1891.10835828 Ry
     estimated scf accuracy    <       0.00655965 Ry

     iteration # 71     ecut=    46.65 Ry     beta= 0.30
     Davidson diagonalization with overlap
     c_bands:  1 eigenvalues not converged
     ethr =  4.76E-07,  avg # of iterations =  8.3

     negative rho (up, down):  4.526E-02 0.000E+00

     total cpu time spent up to now is      190.9 secs

     total energy              =   -1891.10838252 Ry
     estimated scf accuracy    <       0.02785703 Ry

     iteration # 72     ecut=    46.65 Ry     beta= 0.30
     Davidson diagonalization with overlap
     c_bands:  1 eigenvalues not converged
     ethr =  4.76E-07,  avg # of iterations =  4.8

     negative rho (up, down):  4.526E-02 0.000E+00

     total cpu time spent up to now is      193.7 secs

     total energy              =   -1891.10798275 Ry
     estimated scf accuracy    <       0.02052957 Ry

     iteration # 73     ecut=    46.65 Ry     beta= 0.30
     Davidson diagonalization with overlap
     ethr =  4.76E-07,  avg # of iterations =  7.1

     negative rho (up, down):  4.526E-02 0.000E+00

     total cpu time spent up to now is      196.6 secs

     total energy              =   -1891.10791305 Ry
     estimated scf accuracy    <       0.00868080 Ry

     iteration # 74     ecut=    46.65 Ry     beta= 0.30
     Davidson diagonalization with overlap
     c_bands:  1 eigenvalues not converged
     ethr =  4.76E-07,  avg # of iterations = 10.8

     negative rho (up, down):  4.526E-02 0.000E+00

     total cpu time spent up to now is      199.8 secs

     total energy              =   -1891.10808262 Ry
     estimated scf accuracy    <       0.01130552 Ry

     iteration # 75     ecut=    46.65 Ry     beta= 0.30
     Davidson diagonalization with overlap
     c_bands:  1 eigenvalues not converged
     ethr =  4.76E-07,  avg # of iterations = 10.6

     negative rho (up, down):  4.526E-02 0.000E+00

     total cpu time spent up to now is      203.0 secs

     total energy              =   -1891.10826133 Ry
     estimated scf accuracy    <       0.00020528 Ry

     iteration # 76     ecut=    46.65 Ry     beta= 0.30
     Davidson diagonalization with overlap
     ethr =  1.94E-07,  avg # of iterations =  1.4

     negative rho (up, down):  4.526E-02 0.000E+00

     total cpu time spent up to now is      205.2 secs

     total energy              =   -1891.10825763 Ry
     estimated scf accuracy    <       0.00015864 Ry

     iteration # 77     ecut=    46.65 Ry     beta= 0.30
     Davidson diagonalization with overlap
     ethr =  1.50E-07,  avg # of iterations =  5.4

     negative rho (up, down):  4.526E-02 0.000E+00

     total cpu time spent up to now is      207.8 secs

     total energy              =   -1891.10827537 Ry
     estimated scf accuracy    <       0.00033972 Ry

     iteration # 78     ecut=    46.65 Ry     beta= 0.30
     Davidson diagonalization with overlap
     ethr =  1.50E-07,  avg # of iterations =  1.1

     negative rho (up, down):  4.526E-02 0.000E+00

     total cpu time spent up to now is      210.0 secs

     total energy              =   -1891.10827021 Ry
     estimated scf accuracy    <       0.00034882 Ry

     iteration # 79     ecut=    46.65 Ry     beta= 0.30
     Davidson diagonalization with overlap
     ethr =  1.50E-07,  avg # of iterations =  2.0

     negative rho (up, down):  4.526E-02 0.000E+00

     total cpu time spent up to now is      212.3 secs

     total energy              =   -1891.10827097 Ry
     estimated scf accuracy    <       0.00038675 Ry

     iteration # 80     ecut=    46.65 Ry     beta= 0.30
     Davidson diagonalization with overlap
     ethr =  1.50E-07,  avg # of iterations =  1.2

     negative rho (up, down):  4.526E-02 0.000E+00

     total cpu time spent up to now is      214.5 secs

     total energy              =   -1891.10827146 Ry
     estimated scf accuracy    <       0.00038900 Ry

     iteration # 81     ecut=    46.65 Ry     beta= 0.30
     Davidson diagonalization with overlap
     ethr =  1.50E-07,  avg # of iterations =  1.0

     negative rho (up, down):  4.526E-02 0.000E+00

     total cpu time spent up to now is      216.7 secs

     total energy              =   -1891.10827165 Ry
     estimated scf accuracy    <       0.00038962 Ry

     iteration # 82     ecut=    46.65 Ry     beta= 0.30
     Davidson diagonalization with overlap
     ethr =  1.50E-07,  avg # of iterations =  1.0

     negative rho (up, down):  4.526E-02 0.000E+00

     total cpu time spent up to now is      218.9 secs

     total energy              =   -1891.10827293 Ry
     estimated scf accuracy    <       0.00039378 Ry

     iteration # 83     ecut=    46.65 Ry     beta= 0.30
     Davidson diagonalization with overlap
     ethr =  1.50E-07,  avg # of iterations =  1.1

     negative rho (up, down):  4.526E-02 0.000E+00

     total cpu time spent up to now is      221.2 secs

     total energy              =   -1891.10827054 Ry
     estimated scf accuracy    <       0.00040143 Ry

     iteration # 84     ecut=    46.65 Ry     beta= 0.30
     Davidson diagonalization with overlap
     ethr =  1.50E-07,  avg # of iterations =  1.2

     negative rho (up, down):  4.526E-02 0.000E+00

     total cpu time spent up to now is      223.6 secs

     total energy              =   -1891.10826740 Ry
     estimated scf accuracy    <       0.00038905 Ry

     iteration # 85     ecut=    46.65 Ry     beta= 0.30
     Davidson diagonalization with overlap
     ethr =  1.50E-07,  avg # of iterations =  1.0

     negative rho (up, down):  4.526E-02 0.000E+00

     total cpu time spent up to now is      225.9 secs

     total energy              =   -1891.10816781 Ry
     estimated scf accuracy    <       0.00037116 Ry

     iteration # 86     ecut=    46.65 Ry     beta= 0.30
     Davidson diagonalization with overlap
     c_bands:  1 eigenvalues not converged
     ethr =  1.50E-07,  avg # of iterations = 10.9

     negative rho (up, down):  4.526E-02 0.000E+00

     total cpu time spent up to now is      229.7 secs

     total energy              =   -1891.10772370 Ry
     estimated scf accuracy    <       0.05056351 Ry

     iteration # 87     ecut=    46.65 Ry     beta= 0.30
     Davidson diagonalization with overlap
     ethr =  1.50E-07,  avg # of iterations = 10.0

     negative rho (up, down):  4.526E-02 0.000E+00

     total cpu time spent up to now is      233.1 secs

     total energy              =   -1891.10827184 Ry
     estimated scf accuracy    <       0.00013648 Ry

     iteration # 88     ecut=    46.65 Ry     beta= 0.30
     Davidson diagonalization with overlap
     ethr =  1.29E-07,  avg # of iterations =  1.0

     negative rho (up, down):  4.526E-02 0.000E+00

     total cpu time spent up to now is      235.3 secs

     total energy              =   -1891.10826984 Ry
     estimated scf accuracy    <       0.00012860 Ry

     iteration # 89     ecut=    46.65 Ry     beta= 0.30
     Davidson diagonalization with overlap
     ethr =  1.21E-07,  avg # of iterations =  1.0

     negative rho (up, down):  4.526E-02 0.000E+00

     total cpu time spent up to now is      237.5 secs

     total energy              =   -1891.10827328 Ry
     estimated scf accuracy    <       0.00010601 Ry

     iteration # 90     ecut=    46.65 Ry     beta= 0.30
     Davidson diagonalization with overlap
     ethr =  1.00E-07,  avg # of iterations =  1.0

     negative rho (up, down):  4.526E-02 0.000E+00

     total cpu time spent up to now is      239.7 secs

     total energy              =   -1891.10827774 Ry
     estimated scf accuracy    <       0.00011552 Ry

     iteration # 91     ecut=    46.65 Ry     beta= 0.30
     Davidson diagonalization with overlap
     ethr =  1.00E-07,  avg # of iterations =  1.9

     negative rho (up, down):  4.526E-02 0.000E+00

     total cpu time spent up to now is      242.0 secs

     total energy              =   -1891.10828081 Ry
     estimated scf accuracy    <       0.00015639 Ry

     iteration # 92     ecut=    46.65 Ry     beta= 0.30
     Davidson diagonalization with overlap
     ethr =  1.00E-07,  avg # of iterations =  1.4

     negative rho (up, down):  4.526E-02 0.000E+00

     total cpu time spent up to now is      244.3 secs

     total energy              =   -1891.10828102 Ry
     estimated scf accuracy    <       0.00017942 Ry

     iteration # 93     ecut=    46.65 Ry     beta= 0.30
     Davidson diagonalization with overlap
     ethr =  1.00E-07,  avg # of iterations =  1.3

     negative rho (up, down):  4.526E-02 0.000E+00

     total cpu time spent up to now is      246.6 secs

     total energy              =   -1891.10827661 Ry
     estimated scf accuracy    <       0.00019489 Ry

     iteration # 94     ecut=    46.65 Ry     beta= 0.30
     Davidson diagonalization with overlap
     ethr =  1.00E-07,  avg # of iterations =  1.0

     negative rho (up, down):  4.526E-02 0.000E+00

     total cpu time spent up to now is      248.8 secs

     total energy              =   -1891.10825538 Ry
     estimated scf accuracy    <       0.00018253 Ry

     iteration # 95     ecut=    46.65 Ry     beta= 0.30
     Davidson diagonalization with overlap
     ethr =  1.00E-07,  avg # of iterations =  8.8

     negative rho (up, down):  4.526E-02 0.000E+00

     total cpu time spent up to now is      252.2 secs

     total energy              =   -1891.10813925 Ry
     estimated scf accuracy    <       0.00107609 Ry

     iteration # 96     ecut=    46.65 Ry     beta= 0.30
     Davidson diagonalization with overlap
     ethr =  1.00E-07,  avg # of iterations = 11.5

     negative rho (up, down):  4.526E-02 0.000E+00

     total cpu time spent up to now is      256.1 secs

     total energy              =   -1891.10838556 Ry
     estimated scf accuracy    <       0.00665148 Ry

     iteration # 97     ecut=    46.65 Ry     beta= 0.30
     Davidson diagonalization with overlap
     ethr =  1.00E-07,  avg # of iterations =  1.0

     negative rho (up, down):  4.526E-02 0.000E+00

     total cpu time spent up to now is      258.4 secs

     total energy              =   -1891.10837268 Ry
     estimated scf accuracy    <       0.00670810 Ry

     iteration # 98     ecut=    46.65 Ry     beta= 0.30
     Davidson diagonalization with overlap
     ethr =  1.00E-07,  avg # of iterations =  2.7

     negative rho (up, down):  4.526E-02 0.000E+00

     total cpu time spent up to now is      260.8 secs

     total energy              =   -1891.10833302 Ry
     estimated scf accuracy    <       0.00666033 Ry

     iteration # 99     ecut=    46.65 Ry     beta= 0.30
     Davidson diagonalization with overlap
     ethr =  1.00E-07,  avg # of iterations =  3.0

     negative rho (up, down):  4.526E-02 0.000E+00

     total cpu time spent up to now is      263.2 secs

     total energy              =   -1891.10837321 Ry
     estimated scf accuracy    <       0.00609040 Ry

     iteration #100     ecut=    46.65 Ry     beta= 0.30
     Davidson diagonalization with overlap
     ethr =  1.00E-07,  avg # of iterations =  1.2

     negative rho (up, down):  4.526E-02 0.000E+00

     total cpu time spent up to now is      265.4 secs

     total energy              =   -1891.10828367 Ry
     estimated scf accuracy    <       0.00622265 Ry

     End of self-consistent calculation

     convergence NOT achieved after 100 iterations: stopping

     Writing config to output data dir ./YBCO.NoU/YBCO.NoU.save/
 
     init_run     :      1.63s CPU      1.75s WALL (       1 calls)
     electrons    :    251.98s CPU    263.45s WALL (       1 calls)

     Called by init_run:
     wfcinit      :      1.02s CPU      1.07s WALL (       1 calls)
     potinit      :      0.17s CPU      0.18s WALL (       1 calls)
     hinit0       :      0.24s CPU      0.25s WALL (       1 calls)

     Called by electrons:
     c_bands      :    181.46s CPU    184.64s WALL (     100 calls)
     sum_band     :     37.95s CPU     42.84s WALL (     100 calls)
     v_of_rho     :      0.63s CPU      0.66s WALL (     101 calls)
     newd         :     12.49s CPU     15.84s WALL (     101 calls)
     PAW_pot      :     19.31s CPU     19.34s WALL (     101 calls)
     mix_rho      :      0.28s CPU      0.31s WALL (     100 calls)

     Called by c_bands:
     init_us_2    :      4.17s CPU      4.24s WALL (    5454 calls)
     init_us_2:cp :      4.15s CPU      4.23s WALL (    5454 calls)
     cegterg      :    158.27s CPU    161.21s WALL (    2700 calls)

     Called by *egterg:
     cdiaghg      :     22.19s CPU     22.50s WALL (   14968 calls)
     h_psi        :     86.05s CPU     88.03s WALL (   14995 calls)
     s_psi        :     13.97s CPU     14.17s WALL (   15022 calls)
     g_psi        :      0.53s CPU      0.54s WALL (   12268 calls)

     Called by h_psi:
     h_psi:calbec :     15.27s CPU     15.66s WALL (   14995 calls)
     vloc_psi     :     51.55s CPU     52.76s WALL (   14995 calls)
     add_vuspsi   :     14.91s CPU     15.20s WALL (   14995 calls)
     vhpsi        :      3.24s CPU      3.31s WALL (   14995 calls)

     General routines
     calbec       :     23.78s CPU     24.42s WALL (   35417 calls)
     fft          :      0.33s CPU      0.35s WALL (    1313 calls)
     ffts         :      0.04s CPU      0.04s WALL (     201 calls)
     fftw         :     52.32s CPU     53.57s WALL (  784082 calls)
     interpolate  :      0.06s CPU      0.06s WALL (     101 calls)
     davcio       :      0.01s CPU      0.01s WALL (      72 calls)
 
     Parallel routines

     Hubbard U routines
     new_ns       :      1.09s CPU      1.17s WALL (     100 calls)
     vhpsi        :      3.24s CPU      3.31s WALL (   14995 calls)
 
     PWSCF        :   4m13.81s CPU   4m25.42s WALL

 
   This run was terminated on:  22:59:18   3Dec2023            

=------------------------------------------------------------------------------=
   JOB DONE.
=------------------------------------------------------------------------------=
