
     Program BANDS v.7.2 starts on  6Jan2024 at 14:40:12 

     This program is part of the open-source Quantum ESPRESSO suite
     for quantum simulation of materials; please cite
         "P. Giannozzi et al., J. Phys.:Condens. Matter 21 395502 (2009);
         "P. Giannozzi et al., J. Phys.:Condens. Matter 29 465901 (2017);
         "P. Giannozzi et al., J. Chem. Phys. 152 154105 (2020);
          URL http://www.quantum-espresso.org", 
     in publications or presentations arising from this work. More details at
     http://www.quantum-espresso.org/quote

     Parallel version (MPI), running on     4 processors

     MPI processes distributed on     1 nodes
     R & G space division:  proc/nbgrp/npool/nimage =       4
     7767 MiB available memory on the printing compute node when the environment starts
 

     Reading xml data from directory:

     ./Bi2Pd/Bi2Pd.save/
     file Bi.rel-pz-dn-rrkjus_psl.1.0.0.UPF: wavefunction(s)  5D 5D renormalized
     file Pd.rel-pz-n-rrkjus_psl.1.0.0.UPF: wavefunction(s)  4D 4D renormalized

     IMPORTANT: XC functional enforced from input :
     Exchange-correlation= PZ
                           (   1   1   0   0   0   0   0)
     Any further DFT definition will be discarded
     Please, verify this is what you really want

 
     Parallelization info
     --------------------
     sticks:   dense  smooth     PW     G-vecs:    dense   smooth      PW
     Min         439     194     55                54325    16096    2421
     Max         440     195     56                54338    16109    2434
     Sum        1757     777    221               217317    64403    9701
 
     Using Slab Decomposition
 
     Reading collected, re-writing distributed wavefunctions
     high-symmetry point:  0.0000 0.0000 0.0000   x coordinate   0.0000
     high-symmetry point:  0.0000 0.0000 0.1278   x coordinate   0.1278
     high-symmetry point:  0.5000 0.0000 0.0000   x coordinate   0.6439
     high-symmetry point:  0.2500 0.2500 0.0000   x coordinate   0.9975
     high-symmetry point:  0.0000 0.0000 0.0000   x coordinate   1.3510

     Plottable bands (eV) written to file Bi2Pd.band.gnu
     Bands written to file Bi2Pd.band

 **************************************************************************

                    xk=(   0.00000,   0.00000,   0.00000  )

     double point group D_4h(4/mmm)
     there are 14 classes and  4 irreducible representations
     the character table:

       E     -E    2C4   -2C4   C2    2C2' 2C2'' i     -i    2S4   -2S4   s_h 
                               -C2   -2C2' -2C2'                         -s_h 
G_6+   2.00 -2.00  1.41 -1.41  0.00  0.00  0.00  2.00 -2.00  1.41 -1.41  0.00
G_7+   2.00 -2.00 -1.41  1.41  0.00  0.00  0.00  2.00 -2.00 -1.41  1.41  0.00
G_6-   2.00 -2.00  1.41 -1.41  0.00  0.00  0.00 -2.00  2.00 -1.41  1.41  0.00
G_7-   2.00 -2.00 -1.41  1.41  0.00  0.00  0.00 -2.00  2.00  1.41 -1.41  0.00

        2s_v  2s_d
       -2s_v -2s_d
G_6+   0.00  0.00
G_7+   0.00  0.00
G_6-   0.00  0.00
G_7-   0.00  0.00

     the symmetry operations in each class and the name of the first element:

     E             1
                                                                 
     -E           -1
                                                                 
     2C4           7    8
                                                                 
     -2C4         -7   -8
                                                                 
      C2  -C2      2   -2
                                                                 
      2C2'-2C2'    3   -3    4   -4
                                                                 
     2C2''-2C2'    5   -5   -6    6
                                                                 
     i             9
                                                                 
     -i           -9
                                                                 
     2S4          15   16
                                                                 
     -2S4        -15  -16
                                                                 
      s_h -s_h    10  -10
                                                                 
      2s_v-2s_v   11  -11   12  -12
                                                                 
      2s_d-2s_d   13  -13  -14   14
                                                                 

     Band symmetry, D_4h(4/mmm) double point group:

     e(  1 -  4) =    -12.00070  eV     4   --> G_7+  M_7+     
     e(  1 -  4) =    -12.00070  eV     4   --> G_7-  M_7-     
     e(  5 -  8) =    -11.99843  eV     4   --> G_7+  M_7+     
     e(  5 -  8) =    -11.99843  eV     4   --> G_7-  M_7-     
     e(  9 - 10) =    -11.99456  eV     2   --> G_6+  M_6+     
     e( 11 - 12) =    -11.98438  eV     2   --> G_6+  M_6+     
     e( 13 - 14) =    -11.97747  eV     2   --> G_6-  M_6-     
     e( 15 - 16) =    -11.96769  eV     2   --> G_6-  M_6-     
     e( 17 - 18) =     -9.05658  eV     2   --> G_7-  M_7-     
     e( 19 - 20) =     -9.05604  eV     2   --> G_7+  M_7+     
     e( 21 - 22) =     -9.05487  eV     2   --> G_7+  M_7+     
     e( 23 - 24) =     -9.05432  eV     2   --> G_7-  M_7-     
     e( 25 - 26) =     -9.03065  eV     2   --> G_6+  M_6+     
     e( 27 - 28) =     -9.02125  eV     2   --> G_6+  M_6+     
     e( 29 - 30) =     -8.98845  eV     2   --> G_6-  M_6-     
     e( 31 - 32) =     -8.98075  eV     2   --> G_6-  M_6-     
     e( 33 - 34) =     -8.93664  eV     2   --> G_7-  M_7-     
     e( 35 - 36) =     -8.92615  eV     2   --> G_7+  M_7+     
     e( 37 - 38) =     -8.91948  eV     2   --> G_7-  M_7-     
     e( 39 - 40) =     -8.90743  eV     2   --> G_7+  M_7+     
     e( 41 - 42) =     -0.88983  eV     2   --> G_6+  M_6+     
     e( 43 - 44) =     -0.32128  eV     2   --> G_6+  M_6+     
     e( 45 - 46) =     -0.07499  eV     2   --> G_6-  M_6-     
     e( 47 - 48) =      0.83281  eV     2   --> G_6-  M_6-     
     e( 49 - 50) =      6.21066  eV     2   --> G_6+  M_6+     
     e( 51 - 52) =      7.81750  eV     2   --> G_6+  M_6+     
     e( 53 - 54) =      8.45217  eV     2   --> G_7+  M_7+     
     e( 55 - 56) =      8.45254  eV     2   --> G_7+  M_7+     
     e( 57 - 58) =      8.90524  eV     2   --> G_6+  M_6+     
     e( 59 - 60) =      8.97914  eV     2   --> G_6+  M_6+     
     e( 61 - 62) =      9.32382  eV     2   --> G_7+  M_7+     
     e( 63 - 64) =      9.34351  eV     2   --> G_7+  M_7+     
     e( 65 - 66) =      9.51310  eV     2   --> G_6-  M_6-     
     e( 67 - 68) =      9.73279  eV     2   --> G_6+  M_6+     
     e( 69 - 70) =      9.81245  eV     2   --> G_7+  M_7+     
     e( 71 - 72) =      9.81441  eV     2   --> G_7+  M_7+     
     e( 73 - 74) =     10.62594  eV     2   --> G_6+  M_6+     
     e( 75 - 76) =     12.42566  eV     2   --> G_6-  M_6-     
     e( 77 - 78) =     13.24552  eV     2   --> G_6-  M_6-     
     e( 79 - 80) =     14.59458  eV     2   --> G_6+  M_6+     
     e( 81 - 82) =     14.76276  eV     2   --> G_7-  M_7-     
     e( 83 - 84) =     15.00869  eV     2   --> G_6-  M_6-     
     e( 85 - 86) =     15.46797  eV     2   --> G_6+  M_6+     
     e( 87 - 88) =     15.50377  eV     2   --> G_7-  M_7-     
     e( 89 - 90) =     16.52168  eV     2   --> G_7+  M_7+     
     e( 91 - 92) =     16.80582  eV     2   --> G_6+  M_6+     
     e( 93 - 94) =     17.90562  eV     2   --> G_7+  M_7+     
     e( 95 - 96) =     18.38959  eV     2   --> G_6+  M_6+     

 **************************************************************************

 **************************************************************************

                    xk=(   0.00000,   0.00000,   0.01278  )

     double point group C_4v (4mm) 
     there are  7 classes and  2 irreducible representations
     the character table:

       E     -E    2C4   -2C4   C2    2s_v  2s_d
                               -C2   -2s_v -2s_d
G_6    2.00 -2.00  1.41 -1.41  0.00  0.00  0.00
G_7    2.00 -2.00 -1.41  1.41  0.00  0.00  0.00

     the symmetry operations in each class and the name of the first element:

     E             1
                                                                 
     -E           -1
                                                                 
     2C4           3    4
                                                                 
     -2C4         -3   -4
                                                                 
      C2  -C2      2   -2
                                                                 
      2s_v-2s_v    5   -5    6   -6
                                                                 
      2s_d-2s_d    7   -7    8   -8
                                                                 

     Band symmetry, C_4v (4mm)  double point group:

     e(  1 -  2) =    -12.00065  eV     2   --> G_7   D_7      
     e(  3 -  4) =    -12.00055  eV     2   --> G_7   D_7      
     e(  5 -  8) =    -11.99837  eV     4   -->   2 G_7   D_7      
     e(  9 - 10) =    -11.99440  eV     2   --> G_6   D_6      
     e( 11 - 12) =    -11.98444  eV     2   --> G_6   D_6      
     e( 13 - 14) =    -11.97728  eV     2   --> G_6   D_6      
     e( 15 - 16) =    -11.96766  eV     2   --> G_6   D_6      
     e( 17 - 18) =     -9.05653  eV     2   --> G_7   D_7      
     e( 19 - 20) =     -9.05599  eV     2   --> G_7   D_7      
     e( 21 - 22) =     -9.05482  eV     2   --> G_7   D_7      
     e( 23 - 24) =     -9.05428  eV     2   --> G_7   D_7      
     e( 25 - 26) =     -9.03050  eV     2   --> G_6   D_6      
     e( 27 - 28) =     -9.02127  eV     2   --> G_6   D_6      
     e( 29 - 30) =     -8.98835  eV     2   --> G_6   D_6      
     e( 31 - 32) =     -8.98075  eV     2   --> G_6   D_6      
     e( 33 - 34) =     -8.93651  eV     2   --> G_7   D_7      
     e( 35 - 36) =     -8.92625  eV     2   --> G_7   D_7      
     e( 37 - 38) =     -8.91923  eV     2   --> G_7   D_7      
     e( 39 - 40) =     -8.90737  eV     2   --> G_7   D_7      
     e( 41 - 42) =     -0.88804  eV     2   --> G_6   D_6      
     e( 43 - 44) =     -0.33541  eV     2   --> G_6   D_6      
     e( 45 - 46) =     -0.05901  eV     2   --> G_6   D_6      
     e( 47 - 48) =      0.82863  eV     2   --> G_6   D_6      
     e( 49 - 50) =      6.21819  eV     2   --> G_6   D_6      
     e( 51 - 52) =      7.80163  eV     2   --> G_6   D_6      
     e( 53 - 54) =      8.45218  eV     2   --> G_7   D_7      
     e( 55 - 56) =      8.45253  eV     2   --> G_7   D_7      
     e( 57 - 58) =      8.90544  eV     2   --> G_6   D_6      
     e( 59 - 60) =      8.97704  eV     2   --> G_6   D_6      
     e( 61 - 62) =      9.32394  eV     2   --> G_7   D_7      
     e( 63 - 64) =      9.34339  eV     2   --> G_7   D_7      
     e( 65 - 66) =      9.52017  eV     2   --> G_6   D_6      
     e( 67 - 68) =      9.73260  eV     2   --> G_6   D_6      
     e( 69 - 70) =      9.81247  eV     2   --> G_7   D_7      
     e( 71 - 72) =      9.81440  eV     2   --> G_7   D_7      
     e( 73 - 74) =     10.63932  eV     2   --> G_6   D_6      
     e( 75 - 76) =     12.41662  eV     2   --> G_6   D_6      
     e( 77 - 78) =     13.25032  eV     2   --> G_6   D_6      
     e( 79 - 80) =     14.59338  eV     2   --> G_6   D_6      
     e( 81 - 82) =     14.76565  eV     2   --> G_7   D_7      
     e( 83 - 84) =     14.98920  eV     2   --> G_6   D_6      
     e( 85 - 86) =     15.46367  eV     2   --> G_6   D_6      
     e( 87 - 88) =     15.49448  eV     2   --> G_7   D_7      
     e( 89 - 90) =     16.53409  eV     2   --> G_7   D_7      
     e( 91 - 92) =     16.83404  eV     2   --> G_6   D_6      
     e( 93 - 94) =     17.89753  eV     2   --> G_7   D_7      
     e( 95 - 96) =     18.38911  eV     2   --> G_6   D_6      

 **************************************************************************

 **************************************************************************

                    xk=(   0.00000,   0.00000,   0.02557  )

     Band symmetry, C_4v (4mm)  double point group:

     e(  1 -  4) =    -12.00054  eV     4   -->   2 G_7   D_7      
     e(  5 -  8) =    -11.99837  eV     4   -->   2 G_7   D_7      
     e(  9 - 10) =    -11.99422  eV     2   --> G_6   D_6      
     e( 11 - 12) =    -11.98482  eV     2   --> G_6   D_6      
     e( 13 - 14) =    -11.97689  eV     2   --> G_6   D_6      
     e( 15 - 16) =    -11.96777  eV     2   --> G_6   D_6      
     e( 17 - 18) =     -9.05650  eV     2   --> G_7   D_7      
     e( 19 - 20) =     -9.05586  eV     2   --> G_7   D_7      
     e( 21 - 22) =     -9.05482  eV     2   --> G_7   D_7      
     e( 23 - 24) =     -9.05427  eV     2   --> G_7   D_7      
     e( 25 - 26) =     -9.03029  eV     2   --> G_6   D_6      
     e( 27 - 28) =     -9.02147  eV     2   --> G_6   D_6      
     e( 29 - 30) =     -8.98817  eV     2   --> G_6   D_6      
     e( 31 - 32) =     -8.98086  eV     2   --> G_6   D_6      
     e( 33 - 34) =     -8.93640  eV     2   --> G_7   D_7      
     e( 35 - 36) =     -8.92663  eV     2   --> G_7   D_7      
     e( 37 - 38) =     -8.91871  eV     2   --> G_7   D_7      
     e( 39 - 40) =     -8.90752  eV     2   --> G_7   D_7      
     e( 41 - 42) =     -0.88267  eV     2   --> G_6   D_6      
     e( 43 - 44) =     -0.37009  eV     2   --> G_6   D_6      
     e( 45 - 46) =     -0.01884  eV     2   --> G_6   D_6      
     e( 47 - 48) =      0.81617  eV     2   --> G_6   D_6      
     e( 49 - 50) =      6.24067  eV     2   --> G_6   D_6      
     e( 51 - 52) =      7.75559  eV     2   --> G_6   D_6      
     e( 53 - 54) =      8.45218  eV     2   --> G_7   D_7      
     e( 55 - 56) =      8.45253  eV     2   --> G_7   D_7      
     e( 57 - 58) =      8.90602  eV     2   --> G_6   D_6      
     e( 59 - 60) =      8.97149  eV     2   --> G_6   D_6      
     e( 61 - 62) =      9.32430  eV     2   --> G_7   D_7      
     e( 63 - 64) =      9.34302  eV     2   --> G_7   D_7      
     e( 65 - 66) =      9.53929  eV     2   --> G_6   D_6      
     e( 67 - 68) =      9.73198  eV     2   --> G_6   D_6      
     e( 69 - 70) =      9.81250  eV     2   --> G_7   D_7      
     e( 71 - 72) =      9.81436  eV     2   --> G_7   D_7      
     e( 73 - 74) =     10.67915  eV     2   --> G_6   D_6      
     e( 75 - 76) =     12.38964  eV     2   --> G_6   D_6      
     e( 77 - 78) =     13.26475  eV     2   --> G_6   D_6      
     e( 79 - 80) =     14.58521  eV     2   --> G_6   D_6      
     e( 81 - 82) =     14.77429  eV     2   --> G_7   D_7      
     e( 83 - 84) =     14.94021  eV     2   --> G_6   D_6      
     e( 85 - 86) =     15.45087  eV     2   --> G_6   D_6      
     e( 87 - 88) =     15.46801  eV     2   --> G_7   D_7      
     e( 89 - 90) =     16.56989  eV     2   --> G_7   D_7      
     e( 91 - 92) =     16.91357  eV     2   --> G_6   D_6      
     e( 93 - 94) =     17.87352  eV     2   --> G_7   D_7      
     e( 95 - 96) =     18.38759  eV     2   --> G_6   D_6      

 **************************************************************************

 **************************************************************************

                    xk=(   0.00000,   0.00000,   0.03835  )

     Band symmetry, C_4v (4mm)  double point group:

     e(  1 -  2) =    -12.00069  eV     2   --> G_7   D_7      
     e(  3 -  4) =    -12.00049  eV     2   --> G_7   D_7      
     e(  5 -  6) =    -11.99851  eV     2   --> G_7   D_7      
     e(  7 -  8) =    -11.99834  eV     2   --> G_7   D_7      
     e(  9 - 10) =    -11.99415  eV     2   --> G_6   D_6      
     e( 11 - 12) =    -11.98568  eV     2   --> G_6   D_6      
     e( 13 - 14) =    -11.97644  eV     2   --> G_6   D_6      
     e( 15 - 16) =    -11.96797  eV     2   --> G_6   D_6      
     e( 17 - 18) =     -9.05664  eV     2   --> G_7   D_7      
     e( 19 - 20) =     -9.05588  eV     2   --> G_7   D_7      
     e( 21 - 22) =     -9.05494  eV     2   --> G_7   D_7      
     e( 23 - 24) =     -9.05429  eV     2   --> G_7   D_7      
     e( 25 - 26) =     -9.03020  eV     2   --> G_6   D_6      
     e( 27 - 28) =     -9.02198  eV     2   --> G_6   D_6      
     e( 29 - 30) =     -8.98803  eV     2   --> G_6   D_6      
     e( 31 - 32) =     -8.98107  eV     2   --> G_6   D_6      
     e( 33 - 34) =     -8.93640  eV     2   --> G_7   D_7      
     e( 35 - 36) =     -8.92735  eV     2   --> G_7   D_7      
     e( 37 - 38) =     -8.91796  eV     2   --> G_7   D_7      
     e( 39 - 40) =     -8.90788  eV     2   --> G_7   D_7      
     e( 41 - 42) =     -0.87373  eV     2   --> G_6   D_6      
     e( 43 - 44) =     -0.41399  eV     2   --> G_6   D_6      
     e( 45 - 46) =      0.03412  eV     2   --> G_6   D_6      
     e( 47 - 48) =      0.79571  eV     2   --> G_6   D_6      
     e( 49 - 50) =      6.27776  eV     2   --> G_6   D_6      
     e( 51 - 52) =      7.68356  eV     2   --> G_6   D_6      
     e( 53 - 54) =      8.45219  eV     2   --> G_7   D_7      
     e( 55 - 56) =      8.45252  eV     2   --> G_7   D_7      
     e( 57 - 58) =      8.90697  eV     2   --> G_6   D_6      
     e( 59 - 60) =      8.96412  eV     2   --> G_6   D_6      
     e( 61 - 62) =      9.32488  eV     2   --> G_7   D_7      
     e( 63 - 64) =      9.34242  eV     2   --> G_7   D_7      
     e( 65 - 66) =      9.56560  eV     2   --> G_6   D_6      
     e( 67 - 68) =      9.73093  eV     2   --> G_6   D_6      
     e( 69 - 70) =      9.81256  eV     2   --> G_7   D_7      
     e( 71 - 72) =      9.81429  eV     2   --> G_7   D_7      
     e( 73 - 74) =     10.74429  eV     2   --> G_6   D_6      
     e( 75 - 76) =     12.34516  eV     2   --> G_6   D_6      
     e( 77 - 78) =     13.28895  eV     2   --> G_6   D_6      
     e( 79 - 80) =     14.55488  eV     2   --> G_6   D_6      
     e( 81 - 82) =     14.78865  eV     2   --> G_7   D_7      
     e( 83 - 84) =     14.88832  eV     2   --> G_6   D_6      
     e( 85 - 86) =     15.42784  eV     2   --> G_7   D_7      
     e( 87 - 88) =     15.42986  eV     2   --> G_6   D_6      
     e( 89 - 90) =     16.62550  eV     2   --> G_7   D_7      
     e( 91 - 92) =     17.03238  eV     2   --> G_6   D_6      
     e( 93 - 94) =     17.83442  eV     2   --> G_7   D_7      
     e( 95 - 96) =     18.38471  eV     2   --> G_6   D_6      

 **************************************************************************

 **************************************************************************

                    xk=(   0.00000,   0.00000,   0.05113  )

     Band symmetry, C_4v (4mm)  double point group:

     e(  1 -  2) =    -12.00069  eV     2   --> G_7   D_7      
     e(  3 -  4) =    -12.00050  eV     2   --> G_7   D_7      
     e(  5 -  6) =    -11.99853  eV     2   --> G_7   D_7      
     e(  7 -  8) =    -11.99833  eV     2   --> G_7   D_7      
     e(  9 - 10) =    -11.99389  eV     2   --> G_6   D_6      
     e( 11 - 12) =    -11.98639  eV     2   --> G_6   D_6      
     e( 13 - 14) =    -11.97584  eV     2   --> G_6   D_6      
     e( 15 - 16) =    -11.96824  eV     2   --> G_6   D_6      
     e( 17 - 18) =     -9.05662  eV     2   --> G_7   D_7      
     e( 19 - 20) =     -9.05590  eV     2   --> G_7   D_7      
     e( 21 - 22) =     -9.05493  eV     2   --> G_7   D_7      
     e( 23 - 24) =     -9.05432  eV     2   --> G_7   D_7      
     e( 25 - 26) =     -9.02987  eV     2   --> G_6   D_6      
     e( 27 - 28) =     -9.02245  eV     2   --> G_6   D_6      
     e( 29 - 30) =     -8.98774  eV     2   --> G_6   D_6      
     e( 31 - 32) =     -8.98134  eV     2   --> G_6   D_6      
     e( 33 - 34) =     -8.93615  eV     2   --> G_7   D_7      
     e( 35 - 36) =     -8.92815  eV     2   --> G_7   D_7      
     e( 37 - 38) =     -8.91709  eV     2   --> G_7   D_7      
     e( 39 - 40) =     -8.90822  eV     2   --> G_7   D_7      
     e( 41 - 42) =     -0.86124  eV     2   --> G_6   D_6      
     e( 43 - 44) =     -0.46090  eV     2   --> G_6   D_6      
     e( 45 - 46) =      0.09351  eV     2   --> G_6   D_6      
     e( 47 - 48) =      0.76765  eV     2   --> G_6   D_6      
     e( 49 - 50) =      6.32889  eV     2   --> G_6   D_6      
     e( 51 - 52) =      7.59107  eV     2   --> G_6   D_6      
     e( 53 - 54) =      8.45221  eV     2   --> G_7   D_7      
     e( 55 - 56) =      8.45250  eV     2   --> G_7   D_7      
     e( 57 - 58) =      8.90830  eV     2   --> G_6   D_6      
     e( 59 - 60) =      8.95641  eV     2   --> G_6   D_6      
     e( 61 - 62) =      9.32568  eV     2   --> G_7   D_7      
     e( 63 - 64) =      9.34161  eV     2   --> G_7   D_7      
     e( 65 - 66) =      9.59399  eV     2   --> G_6   D_6      
     e( 67 - 68) =      9.72937  eV     2   --> G_6   D_6      
     e( 69 - 70) =      9.81264  eV     2   --> G_7   D_7      
     e( 71 - 72) =      9.81421  eV     2   --> G_7   D_7      
     e( 73 - 74) =     10.83251  eV     2   --> G_6   D_6      
     e( 75 - 76) =     12.28382  eV     2   --> G_6   D_6      
     e( 77 - 78) =     13.32311  eV     2   --> G_6   D_6      
     e( 79 - 80) =     14.48414  eV     2   --> G_6   D_6      
     e( 81 - 82) =     14.80863  eV     2   --> G_7   D_7      
     e( 83 - 84) =     14.86390  eV     2   --> G_6   D_6      
     e( 85 - 86) =     15.37810  eV     2   --> G_7   D_7      
     e( 87 - 88) =     15.40113  eV     2   --> G_6   D_6      
     e( 89 - 90) =     16.69661  eV     2   --> G_7   D_7      
     e( 91 - 92) =     17.17742  eV     2   --> G_6   D_6      
     e( 93 - 94) =     17.78150  eV     2   --> G_7   D_7      
     e( 95 - 96) =     18.37983  eV     2   --> G_6   D_6      

 **************************************************************************

 **************************************************************************

                    xk=(   0.00000,   0.00000,   0.06391  )

     Band symmetry, C_4v (4mm)  double point group:

     e(  1 -  2) =    -12.00067  eV     2   --> G_7   D_7      
     e(  3 -  4) =    -12.00050  eV     2   --> G_7   D_7      
     e(  5 -  6) =    -11.99843  eV     2   --> G_7   D_7      
     e(  7 -  8) =    -11.99833  eV     2   --> G_7   D_7      
     e(  9 - 10) =    -11.99355  eV     2   --> G_6   D_6      
     e( 11 - 12) =    -11.98711  eV     2   --> G_6   D_6      
     e( 13 - 14) =    -11.97509  eV     2   --> G_6   D_6      
     e( 15 - 16) =    -11.96858  eV     2   --> G_6   D_6      
     e( 17 - 18) =     -9.05655  eV     2   --> G_7   D_7      
     e( 19 - 20) =     -9.05594  eV     2   --> G_7   D_7      
     e( 21 - 22) =     -9.05482  eV     2   --> G_7   D_7      
     e( 23 - 24) =     -9.05435  eV     2   --> G_7   D_7      
     e( 25 - 26) =     -9.02946  eV     2   --> G_6   D_6      
     e( 27 - 28) =     -9.02295  eV     2   --> G_6   D_6      
     e( 29 - 30) =     -8.98728  eV     2   --> G_6   D_6      
     e( 31 - 32) =     -8.98169  eV     2   --> G_6   D_6      
     e( 33 - 34) =     -8.93587  eV     2   --> G_7   D_7      
     e( 35 - 36) =     -8.92901  eV     2   --> G_7   D_7      
     e( 37 - 38) =     -8.91616  eV     2   --> G_7   D_7      
     e( 39 - 40) =     -8.90852  eV     2   --> G_7   D_7      
     e( 41 - 42) =     -0.84523  eV     2   --> G_6   D_6      
     e( 43 - 44) =     -0.50800  eV     2   --> G_6   D_6      
     e( 45 - 46) =      0.15627  eV     2   --> G_6   D_6      
     e( 47 - 48) =      0.73256  eV     2   --> G_6   D_6      
     e( 49 - 50) =      6.39334  eV     2   --> G_6   D_6      
     e( 51 - 52) =      7.48379  eV     2   --> G_6   D_6      
     e( 53 - 54) =      8.45222  eV     2   --> G_7   D_7      
     e( 55 - 56) =      8.45249  eV     2   --> G_7   D_7      
     e( 57 - 58) =      8.91000  eV     2   --> G_6   D_6      
     e( 59 - 60) =      8.94918  eV     2   --> G_6   D_6      
     e( 61 - 62) =      9.32668  eV     2   --> G_7   D_7      
     e( 63 - 64) =      9.34059  eV     2   --> G_7   D_7      
     e( 65 - 66) =      9.62081  eV     2   --> G_6   D_6      
     e( 67 - 68) =      9.72722  eV     2   --> G_6   D_6      
     e( 69 - 70) =      9.81273  eV     2   --> G_7   D_7      
     e( 71 - 72) =      9.81411  eV     2   --> G_7   D_7      
     e( 73 - 74) =     10.94048  eV     2   --> G_6   D_6      
     e( 75 - 76) =     12.20646  eV     2   --> G_6   D_6      
     e( 77 - 78) =     13.36753  eV     2   --> G_6   D_6      
     e( 79 - 80) =     14.37616  eV     2   --> G_6   D_6      
     e( 81 - 82) =     14.83413  eV     2   --> G_7   D_7      
     e( 83 - 84) =     14.87340  eV     2   --> G_6   D_6      
     e( 85 - 86) =     15.32249  eV     2   --> G_7   D_7      
     e( 87 - 88) =     15.36532  eV     2   --> G_6   D_6      
     e( 89 - 90) =     16.77926  eV     2   --> G_7   D_7      
     e( 91 - 92) =     17.33784  eV     2   --> G_6   D_6      
     e( 93 - 94) =     17.71633  eV     2   --> G_7   D_7      
     e( 95 - 96) =     18.37174  eV     2   --> G_6   D_6      

 **************************************************************************

 **************************************************************************

                    xk=(   0.00000,   0.00000,   0.07670  )

     Band symmetry, C_4v (4mm)  double point group:

     e(  1 -  2) =    -12.00065  eV     2   --> G_7   D_7      
     e(  3 -  4) =    -12.00050  eV     2   --> G_7   D_7      
     e(  5 -  6) =    -11.99844  eV     2   --> G_7   D_7      
     e(  7 -  8) =    -11.99829  eV     2   --> G_7   D_7      
     e(  9 - 10) =    -11.99312  eV     2   --> G_6   D_6      
     e( 11 - 12) =    -11.98790  eV     2   --> G_6   D_6      
     e( 13 - 14) =    -11.97429  eV     2   --> G_6   D_6      
     e( 15 - 16) =    -11.96876  eV     2   --> G_6   D_6      
     e( 17 - 18) =     -9.05650  eV     2   --> G_7   D_7      
     e( 19 - 20) =     -9.05597  eV     2   --> G_7   D_7      
     e( 21 - 22) =     -9.05479  eV     2   --> G_7   D_7      
     e( 23 - 24) =     -9.05435  eV     2   --> G_7   D_7      
     e( 25 - 26) =     -9.02897  eV     2   --> G_6   D_6      
     e( 27 - 28) =     -9.02358  eV     2   --> G_6   D_6      
     e( 29 - 30) =     -8.98672  eV     2   --> G_6   D_6      
     e( 31 - 32) =     -8.98185  eV     2   --> G_6   D_6      
     e( 33 - 34) =     -8.93546  eV     2   --> G_7   D_7      
     e( 35 - 36) =     -8.92983  eV     2   --> G_7   D_7      
     e( 37 - 38) =     -8.91517  eV     2   --> G_7   D_7      
     e( 39 - 40) =     -8.90903  eV     2   --> G_7   D_7      
     e( 41 - 42) =     -0.82574  eV     2   --> G_6   D_6      
     e( 43 - 44) =     -0.55390  eV     2   --> G_6   D_6      
     e( 45 - 46) =      0.22074  eV     2   --> G_6   D_6      
     e( 47 - 48) =      0.69109  eV     2   --> G_6   D_6      
     e( 49 - 50) =      6.47018  eV     2   --> G_6   D_6      
     e( 51 - 52) =      7.36686  eV     2   --> G_6   D_6      
     e( 53 - 54) =      8.45224  eV     2   --> G_7   D_7      
     e( 55 - 56) =      8.45247  eV     2   --> G_7   D_7      
     e( 57 - 58) =      8.91204  eV     2   --> G_6   D_6      
     e( 59 - 60) =      8.94273  eV     2   --> G_6   D_6      
     e( 61 - 62) =      9.32784  eV     2   --> G_7   D_7      
     e( 63 - 64) =      9.33941  eV     2   --> G_7   D_7      
     e( 65 - 66) =      9.64424  eV     2   --> G_6   D_6      
     e( 67 - 68) =      9.72438  eV     2   --> G_6   D_6      
     e( 69 - 70) =      9.81284  eV     2   --> G_7   D_7      
     e( 71 - 72) =      9.81399  eV     2   --> G_7   D_7      
     e( 73 - 74) =     11.06400  eV     2   --> G_6   D_6      
     e( 75 - 76) =     12.11410  eV     2   --> G_6   D_6      
     e( 77 - 78) =     13.42255  eV     2   --> G_6   D_6      
     e( 79 - 80) =     14.24927  eV     2   --> G_6   D_6      
     e( 81 - 82) =     14.86497  eV     2   --> G_7   D_7      
     e( 83 - 84) =     14.90514  eV     2   --> G_6   D_6      
     e( 85 - 86) =     15.26398  eV     2   --> G_7   D_7      
     e( 87 - 88) =     15.32324  eV     2   --> G_6   D_6      
     e( 89 - 90) =     16.87013  eV     2   --> G_7   D_7      
     e( 91 - 92) =     17.50539  eV     2   --> G_6   D_6      
     e( 93 - 94) =     17.64068  eV     2   --> G_7   D_7      
     e( 95 - 96) =     18.35811  eV     2   --> G_6   D_6      

 **************************************************************************

 **************************************************************************

                    xk=(   0.00000,   0.00000,   0.08948  )

     Band symmetry, C_4v (4mm)  double point group:

     e(  1 -  4) =    -12.00072  eV     4   -->   2 G_7   D_7      
     e(  5 -  8) =    -11.99844  eV     4   -->   2 G_7   D_7      
     e(  9 - 10) =    -11.99269  eV     2   --> G_6   D_6      
     e( 11 - 12) =    -11.98861  eV     2   --> G_6   D_6      
     e( 13 - 14) =    -11.97350  eV     2   --> G_6   D_6      
     e( 15 - 16) =    -11.96936  eV     2   --> G_6   D_6      
     e( 17 - 18) =     -9.05653  eV     2   --> G_7   D_7      
     e( 19 - 20) =     -9.05616  eV     2   --> G_7   D_7      
     e( 21 - 22) =     -9.05476  eV     2   --> G_7   D_7      
     e( 23 - 24) =     -9.05448  eV     2   --> G_7   D_7      
     e( 25 - 26) =     -9.02843  eV     2   --> G_6   D_6      
     e( 27 - 28) =     -9.02413  eV     2   --> G_6   D_6      
     e( 29 - 30) =     -8.98614  eV     2   --> G_6   D_6      
     e( 31 - 32) =     -8.98243  eV     2   --> G_6   D_6      
     e( 33 - 34) =     -8.93504  eV     2   --> G_7   D_7      
     e( 35 - 36) =     -8.93086  eV     2   --> G_7   D_7      
     e( 37 - 38) =     -8.91424  eV     2   --> G_7   D_7      
     e( 39 - 40) =     -8.90956  eV     2   --> G_7   D_7      
     e( 41 - 42) =     -0.80281  eV     2   --> G_6   D_6      
     e( 43 - 44) =     -0.59784  eV     2   --> G_6   D_6      
     e( 45 - 46) =      0.28582  eV     2   --> G_6   D_6      
     e( 47 - 48) =      0.64397  eV     2   --> G_6   D_6      
     e( 49 - 50) =      6.55834  eV     2   --> G_6   D_6      
     e( 51 - 52) =      7.24457  eV     2   --> G_6   D_6      
     e( 53 - 54) =      8.45226  eV     2   --> G_7   D_7      
     e( 55 - 56) =      8.45245  eV     2   --> G_7   D_7      
     e( 57 - 58) =      8.91444  eV     2   --> G_6   D_6      
     e( 59 - 60) =      8.93705  eV     2   --> G_6   D_6      
     e( 61 - 62) =      9.32915  eV     2   --> G_7   D_7      
     e( 63 - 64) =      9.33808  eV     2   --> G_7   D_7      
     e( 65 - 66) =      9.66373  eV     2   --> G_6   D_6      
     e( 67 - 68) =      9.72067  eV     2   --> G_6   D_6      
     e( 69 - 70) =      9.81297  eV     2   --> G_7   D_7      
     e( 71 - 72) =      9.81385  eV     2   --> G_7   D_7      
     e( 73 - 74) =     11.19852  eV     2   --> G_6   D_6      
     e( 75 - 76) =     12.00795  eV     2   --> G_6   D_6      
     e( 77 - 78) =     13.48855  eV     2   --> G_6   D_6      
     e( 79 - 80) =     14.11743  eV     2   --> G_6   D_6      
     e( 81 - 82) =     14.90097  eV     2   --> G_7   D_7      
     e( 83 - 84) =     14.94942  eV     2   --> G_6   D_6      
     e( 85 - 86) =     15.20476  eV     2   --> G_7   D_7      
     e( 87 - 88) =     15.27582  eV     2   --> G_6   D_6      
     e( 89 - 90) =     16.96660  eV     2   --> G_7   D_7      
     e( 91 - 92) =     17.55637  eV     2   --> G_7   D_7      
     e( 93 - 94) =     17.67366  eV     2   --> G_6   D_6      
     e( 95 - 96) =     18.33460  eV     2   --> G_6   D_6      

 **************************************************************************

 **************************************************************************

                    xk=(   0.00000,   0.00000,   0.10226  )

     Band symmetry, C_4v (4mm)  double point group:

     e(  1 -  4) =    -12.00072  eV     4   -->   2 G_7   D_7      
     e(  5 -  8) =    -11.99835  eV     4   -->   2 G_7   D_7      
     e(  9 - 10) =    -11.99211  eV     2   --> G_6   D_6      
     e( 11 - 12) =    -11.98945  eV     2   --> G_6   D_6      
     e( 13 - 14) =    -11.97268  eV     2   --> G_6   D_6      
     e( 15 - 16) =    -11.96994  eV     2   --> G_6   D_6      
     e( 17 - 18) =     -9.05648  eV     2   --> G_7   D_7      
     e( 19 - 20) =     -9.05622  eV     2   --> G_7   D_7      
     e( 21 - 22) =     -9.05462  eV     2   --> G_7   D_7      
     e( 23 - 24) =     -9.05450  eV     2   --> G_7   D_7      
     e( 25 - 26) =     -9.02778  eV     2   --> G_6   D_6      
     e( 27 - 28) =     -9.02489  eV     2   --> G_6   D_6      
     e( 29 - 30) =     -8.98547  eV     2   --> G_6   D_6      
     e( 31 - 32) =     -8.98299  eV     2   --> G_6   D_6      
     e( 33 - 34) =     -8.93450  eV     2   --> G_7   D_7      
     e( 35 - 36) =     -8.93168  eV     2   --> G_7   D_7      
     e( 37 - 38) =     -8.91331  eV     2   --> G_7   D_7      
     e( 39 - 40) =     -8.91009  eV     2   --> G_7   D_7      
     e( 41 - 42) =     -0.77650  eV     2   --> G_6   D_6      
     e( 43 - 44) =     -0.63937  eV     2   --> G_6   D_6      
     e( 45 - 46) =      0.35064  eV     2   --> G_6   D_6      
     e( 47 - 48) =      0.59196  eV     2   --> G_6   D_6      
     e( 49 - 50) =      6.65659  eV     2   --> G_6   D_6      
     e( 51 - 52) =      7.12045  eV     2   --> G_6   D_6      
     e( 53 - 54) =      8.45228  eV     2   --> G_7   D_7      
     e( 55 - 56) =      8.45243  eV     2   --> G_7   D_7      
     e( 57 - 58) =      8.91718  eV     2   --> G_6   D_6      
     e( 59 - 60) =      8.93207  eV     2   --> G_6   D_6      
     e( 61 - 62) =      9.33057  eV     2   --> G_7   D_7      
     e( 63 - 64) =      9.33665  eV     2   --> G_7   D_7      
     e( 65 - 66) =      9.67949  eV     2   --> G_6   D_6      
     e( 67 - 68) =      9.71590  eV     2   --> G_6   D_6      
     e( 69 - 70) =      9.81310  eV     2   --> G_7   D_7      
     e( 71 - 72) =      9.81372  eV     2   --> G_7   D_7      
     e( 73 - 74) =     11.33951  eV     2   --> G_6   D_6      
     e( 75 - 76) =     11.88957  eV     2   --> G_6   D_6      
     e( 77 - 78) =     13.56590  eV     2   --> G_6   D_6      
     e( 79 - 80) =     13.98854  eV     2   --> G_6   D_6      
     e( 81 - 82) =     14.94186  eV     2   --> G_7   D_7      
     e( 83 - 84) =     15.00081  eV     2   --> G_6   D_6      
     e( 85 - 86) =     15.14644  eV     2   --> G_7   D_7      
     e( 87 - 88) =     15.22413  eV     2   --> G_6   D_6      
     e( 89 - 90) =     17.06651  eV     2   --> G_7   D_7      
     e( 91 - 92) =     17.46521  eV     2   --> G_7   D_7      
     e( 93 - 94) =     17.83698  eV     2   --> G_6   D_6      
     e( 95 - 96) =     18.29352  eV     2   --> G_6   D_6      

 **************************************************************************

 **************************************************************************

                    xk=(   0.00000,   0.00000,   0.11505  )

     Band symmetry, C_4v (4mm)  double point group:

     e(  1 -  2) =    -12.00077  eV     2   --> G_7   D_7      
     e(  3 -  4) =    -12.00063  eV     2   --> G_7   D_7      
     e(  5 -  6) =    -11.99845  eV     2   --> G_7   D_7      
     e(  7 -  8) =    -11.99831  eV     2   --> G_7   D_7      
     e(  9 - 10) =    -11.99174  eV     2   --> G_6   D_6      
     e( 11 - 12) =    -11.99016  eV     2   --> G_6   D_6      
     e( 13 - 14) =    -11.97202  eV     2   --> G_6   D_6      
     e( 15 - 16) =    -11.97068  eV     2   --> G_6   D_6      
     e( 17 - 20) =     -9.05635  eV     4   -->   2 G_7   D_7      
     e( 21 - 24) =     -9.05465  eV     4   -->   2 G_7   D_7      
     e( 25 - 26) =     -9.02731  eV     2   --> G_6   D_6      
     e( 27 - 28) =     -9.02571  eV     2   --> G_6   D_6      
     e( 29 - 30) =     -8.98486  eV     2   --> G_6   D_6      
     e( 31 - 32) =     -8.98364  eV     2   --> G_6   D_6      
     e( 33 - 34) =     -8.93376  eV     2   --> G_7   D_7      
     e( 35 - 36) =     -8.93252  eV     2   --> G_7   D_7      
     e( 37 - 38) =     -8.91265  eV     2   --> G_7   D_7      
     e( 39 - 40) =     -8.91085  eV     2   --> G_7   D_7      
     e( 41 - 42) =     -0.74689  eV     2   --> G_6   D_6      
     e( 43 - 44) =     -0.67819  eV     2   --> G_6   D_6      
     e( 45 - 46) =      0.41441  eV     2   --> G_6   D_6      
     e( 47 - 48) =      0.53584  eV     2   --> G_6   D_6      
     e( 49 - 50) =      6.76357  eV     2   --> G_6   D_6      
     e( 51 - 52) =      6.99738  eV     2   --> G_6   D_6      
     e( 53 - 54) =      8.45230  eV     2   --> G_7   D_7      
     e( 55 - 56) =      8.45241  eV     2   --> G_7   D_7      
     e( 57 - 58) =      8.92028  eV     2   --> G_6   D_6      
     e( 59 - 60) =      8.92768  eV     2   --> G_6   D_6      
     e( 61 - 62) =      9.33206  eV     2   --> G_7   D_7      
     e( 63 - 64) =      9.33515  eV     2   --> G_7   D_7      
     e( 65 - 66) =      9.69205  eV     2   --> G_6   D_6      
     e( 67 - 68) =      9.70978  eV     2   --> G_6   D_6      
     e( 69 - 70) =      9.81325  eV     2   --> G_7   D_7      
     e( 71 - 72) =      9.81357  eV     2   --> G_7   D_7      
     e( 73 - 74) =     11.48272  eV     2   --> G_6   D_6      
     e( 75 - 76) =     11.76089  eV     2   --> G_6   D_6      
     e( 77 - 78) =     13.65485  eV     2   --> G_6   D_6      
     e( 79 - 80) =     13.86704  eV     2   --> G_6   D_6      
     e( 81 - 82) =     14.98732  eV     2   --> G_7   D_7      
     e( 83 - 84) =     15.05604  eV     2   --> G_6   D_6      
     e( 85 - 86) =     15.09020  eV     2   --> G_7   D_7      
     e( 87 - 88) =     15.16935  eV     2   --> G_6   D_6      
     e( 89 - 90) =     17.16799  eV     2   --> G_7   D_7      
     e( 91 - 92) =     17.36898  eV     2   --> G_7   D_7      
     e( 93 - 94) =     17.98904  eV     2   --> G_6   D_6      
     e( 95 - 96) =     18.22450  eV     2   --> G_6   D_6      

 **************************************************************************

 **************************************************************************

                    xk=(   0.00000,   0.00000,   0.12783  )

     double point group D_4h(4/mmm)
     there are 14 classes and  4 irreducible representations
     the character table:

       E     -E    2C4   -2C4   C2    2C2' 2C2'' i     -i    2S4   -2S4   s_h 
                               -C2   -2C2' -2C2'                         -s_h 
G_6+   2.00 -2.00  1.41 -1.41  0.00  0.00  0.00  2.00 -2.00  1.41 -1.41  0.00
G_7+   2.00 -2.00 -1.41  1.41  0.00  0.00  0.00  2.00 -2.00 -1.41  1.41  0.00
G_6-   2.00 -2.00  1.41 -1.41  0.00  0.00  0.00 -2.00  2.00 -1.41  1.41  0.00
G_7-   2.00 -2.00 -1.41  1.41  0.00  0.00  0.00 -2.00  2.00  1.41 -1.41  0.00

        2s_v  2s_d
       -2s_v -2s_d
G_6+   0.00  0.00
G_7+   0.00  0.00
G_6-   0.00  0.00
G_7-   0.00  0.00

     the symmetry operations in each class and the name of the first element:

     E             1
                                                                 
     -E           -1
                                                                 
     2C4           7    8
                                                                 
     -2C4         -7   -8
                                                                 
      C2  -C2      2   -2
                                                                 
      2C2'-2C2'    3   -3    4   -4
                                                                 
     2C2''-2C2'    5   -5   -6    6
                                                                 
     i             9
                                                                 
     -i           -9
                                                                 
     2S4          15   16
                                                                 
     -2S4        -15  -16
                                                                 
      s_h -s_h    10  -10
                                                                 
      2s_v-2s_v   11  -11   12  -12
                                                                 
      2s_d-2s_d   13  -13  -14   14
                                                                 

     Band symmetry, D_4h(4/mmm) double point group:

     e(  1 -  4) =    -12.00078  eV     4   --> G_7+  M_7+     
     e(  1 -  4) =    -12.00078  eV     4   --> G_7-  M_7-     
     e(  5 -  8) =    -11.99833  eV     4   --> G_7+  M_7+     
     e(  5 -  8) =    -11.99833  eV     4   --> G_7-  M_7-     
     e(  9 - 12) =    -11.99091  eV     4   --> G_6+  M_6+     
     e(  9 - 12) =    -11.99091  eV     4   --> G_6-  M_6-     
     e( 13 - 16) =    -11.97136  eV     4   --> G_6+  M_6+     
     e( 13 - 16) =    -11.97136  eV     4   --> G_6-  M_6-     
     e( 17 - 20) =     -9.05639  eV     4   --> G_7+  M_7+     
     e( 17 - 20) =     -9.05639  eV     4   --> G_7-  M_7-     
     e( 21 - 24) =     -9.05458  eV     4   --> G_7+  M_7+     
     e( 21 - 24) =     -9.05458  eV     4   --> G_7-  M_7-     
     e( 25 - 28) =     -9.02645  eV     4   --> G_6+  M_6+     
     e( 25 - 28) =     -9.02645  eV     4   --> G_6-  M_6-     
     e( 29 - 32) =     -8.98428  eV     4   --> G_6+  M_6+     
     e( 29 - 32) =     -8.98428  eV     4   --> G_6-  M_6-     
     e( 33 - 36) =     -8.93328  eV     4   --> G_7+  M_7+     
     e( 33 - 36) =     -8.93328  eV     4   --> G_7-  M_7-     
     e( 37 - 40) =     -8.91165  eV     4   --> G_7+  M_7+     
     e( 37 - 40) =     -8.91165  eV     4   --> G_7-  M_7-     
     e( 41 - 44) =     -0.71409  eV     4   --> G_6+  M_6+     
     e( 41 - 44) =     -0.71409  eV     4   --> G_6-  M_6-     
     e( 45 - 48) =      0.47640  eV     4   --> G_6+  M_6+     
     e( 45 - 48) =      0.47640  eV     4   --> G_6-  M_6-     
     e( 49 - 52) =      6.87774  eV     4   --> G_6+  M_6+     
     e( 49 - 52) =      6.87774  eV     4   --> G_6-  M_6-     
     e( 53 - 56) =      8.45231  eV     4   --> G_7+  M_7+     
     e( 53 - 56) =      8.45231  eV     4   --> G_7-  M_7-     
     e( 57 - 60) =      8.92372  eV     4   --> G_6+  M_6+     
     e( 57 - 60) =      8.92372  eV     4   --> G_6-  M_6-     
     e( 61 - 64) =      9.33356  eV     4   --> G_7+  M_7+     
     e( 61 - 64) =      9.33356  eV     4   --> G_7-  M_7-     
     e( 65 - 68) =      9.70194  eV     4   --> G_6+  M_6+     
     e( 65 - 68) =      9.70194  eV     4   --> G_6-  M_6-     
     e( 69 - 70) =      9.81336  eV     2   --> G_7-  M_7-     
     e( 71 - 72) =      9.81346  eV     2   --> G_7+  M_7+     
     e( 73 - 76) =     11.62431  eV     4   --> G_6+  M_6+     
     e( 73 - 76) =     11.62431  eV     4   --> G_6-  M_6-     
     e( 77 - 80) =     13.75539  eV     4   --> G_6+  M_6+     
     e( 77 - 80) =     13.75539  eV     4   --> G_6-  M_6-     
     e( 81 - 84) =     15.03693  eV     4   --> G_7+  M_7+     
     e( 81 - 84) =     15.03693  eV     4   --> G_7-  M_7-     
     e( 85 - 88) =     15.11281  eV     4   --> G_6+  M_6+     
     e( 85 - 88) =     15.11281  eV     4   --> G_6-  M_6-     
     e( 89 - 92) =     17.26936  eV     4   --> G_7+  M_7+     
     e( 89 - 92) =     17.26936  eV     4   --> G_7-  M_7-     
     e( 93 - 96) =     18.12146  eV     4   --> G_6+  M_6+     
     e( 93 - 96) =     18.12146  eV     4   --> G_6-  M_6-     

 **************************************************************************

 **************************************************************************

                    xk=(   0.05000,   0.00000,   0.11505  )

     double point group C_s (m)    
     there are  4 classes and  2 irreducible representations
     the character table:

       E     -E    s     -s   
                              
G_3    1.00 -1.00  0.00  0.00
G_4    1.00 -1.00  0.00  0.00

     imaginary part

       E     -E    s     -s   
                              
G_3    0.00  0.00  1.00 -1.00
G_4    0.00  0.00 -1.00  1.00

     the symmetry operations in each class and the name of the first element:

     E             1
                                                                 
     -E           -1
                                                                 
     s             2
                                                                 
     -s           -2
                                                                 

     Band symmetry, C_s (m)     double point group:

     e(  1 -  4) =    -11.99993  eV     4   -->   2 G_3            
     e(  1 -  4) =    -11.99993  eV     4   -->   2 G_4            
     e(  5 -  8) =    -11.99758  eV     4   -->   2 G_3            
     e(  5 -  8) =    -11.99758  eV     4   -->   2 G_4            
     e(  9 - 10) =    -11.99113  eV     2   --> G_3            
     e(  9 - 10) =    -11.99113  eV     2   --> G_4            
     e( 11 - 12) =    -11.98980  eV     2   --> G_3            
     e( 11 - 12) =    -11.98980  eV     2   --> G_4            
     e( 13 - 14) =    -11.97192  eV     2   --> G_3            
     e( 13 - 14) =    -11.97192  eV     2   --> G_4            
     e( 15 - 16) =    -11.97049  eV     2   --> G_3            
     e( 15 - 16) =    -11.97049  eV     2   --> G_4            
     e( 17 - 18) =     -9.05476  eV     2   --> G_3            
     e( 17 - 18) =     -9.05476  eV     2   --> G_4            
     e( 19 - 20) =     -9.05456  eV     2   --> G_3            
     e( 19 - 20) =     -9.05456  eV     2   --> G_4            
     e( 21 - 24) =     -9.05274  eV     4   -->   2 G_3            
     e( 21 - 24) =     -9.05274  eV     4   -->   2 G_4            
     e( 25 - 26) =     -9.02632  eV     2   --> G_3            
     e( 25 - 26) =     -9.02632  eV     2   --> G_4            
     e( 27 - 28) =     -9.02490  eV     2   --> G_3            
     e( 27 - 28) =     -9.02490  eV     2   --> G_4            
     e( 29 - 30) =     -8.98426  eV     2   --> G_3            
     e( 29 - 30) =     -8.98426  eV     2   --> G_4            
     e( 31 - 32) =     -8.98296  eV     2   --> G_3            
     e( 31 - 32) =     -8.98296  eV     2   --> G_4            
     e( 33 - 34) =     -8.93497  eV     2   --> G_3            
     e( 33 - 34) =     -8.93497  eV     2   --> G_4            
     e( 35 - 36) =     -8.93348  eV     2   --> G_3            
     e( 35 - 36) =     -8.93348  eV     2   --> G_4            
     e( 37 - 38) =     -8.91368  eV     2   --> G_3            
     e( 37 - 38) =     -8.91368  eV     2   --> G_4            
     e( 39 - 40) =     -8.91205  eV     2   --> G_3            
     e( 39 - 40) =     -8.91205  eV     2   --> G_4            
     e( 41 - 42) =     -0.71703  eV     2   --> G_3            
     e( 41 - 42) =     -0.71703  eV     2   --> G_4            
     e( 43 - 44) =     -0.64853  eV     2   --> G_3            
     e( 43 - 44) =     -0.64853  eV     2   --> G_4            
     e( 45 - 46) =      0.43847  eV     2   --> G_3            
     e( 45 - 46) =      0.43847  eV     2   --> G_4            
     e( 47 - 48) =      0.55909  eV     2   --> G_3            
     e( 47 - 48) =      0.55909  eV     2   --> G_4            
     e( 49 - 50) =      6.79427  eV     2   --> G_3            
     e( 49 - 50) =      6.79427  eV     2   --> G_4            
     e( 51 - 52) =      7.02588  eV     2   --> G_3            
     e( 51 - 52) =      7.02588  eV     2   --> G_4            
     e( 53 - 56) =      8.45895  eV     4   -->   2 G_3            
     e( 53 - 56) =      8.45895  eV     4   -->   2 G_4            
     e( 57 - 58) =      8.91218  eV     2   --> G_3            
     e( 57 - 58) =      8.91218  eV     2   --> G_4            
     e( 59 - 60) =      8.91611  eV     2   --> G_3            
     e( 59 - 60) =      8.91611  eV     2   --> G_4            
     e( 61 - 62) =      9.31278  eV     2   --> G_3            
     e( 61 - 62) =      9.31278  eV     2   --> G_4            
     e( 63 - 64) =      9.31644  eV     2   --> G_3            
     e( 63 - 64) =      9.31644  eV     2   --> G_4            
     e( 65 - 66) =      9.72039  eV     2   --> G_3            
     e( 65 - 66) =      9.72039  eV     2   --> G_4            
     e( 67 - 68) =      9.72551  eV     2   --> G_3            
     e( 67 - 68) =      9.72551  eV     2   --> G_4            
     e( 69 - 70) =      9.79064  eV     2   --> G_3            
     e( 69 - 70) =      9.79064  eV     2   --> G_4            
     e( 71 - 72) =      9.79082  eV     2   --> G_3            
     e( 71 - 72) =      9.79082  eV     2   --> G_4            
     e( 73 - 74) =     11.45900  eV     2   --> G_3            
     e( 73 - 74) =     11.45900  eV     2   --> G_4            
     e( 75 - 76) =     11.72845  eV     2   --> G_3            
     e( 75 - 76) =     11.72845  eV     2   --> G_4            
     e( 77 - 78) =     13.56609  eV     2   --> G_3            
     e( 77 - 78) =     13.56609  eV     2   --> G_4            
     e( 79 - 80) =     13.76597  eV     2   --> G_3            
     e( 79 - 80) =     13.76597  eV     2   --> G_4            
     e( 81 - 82) =     14.79058  eV     2   --> G_3            
     e( 81 - 82) =     14.79058  eV     2   --> G_4            
     e( 83 - 84) =     14.79240  eV     2   --> G_3            
     e( 83 - 84) =     14.79240  eV     2   --> G_4            
     e( 85 - 86) =     15.08547  eV     2   --> G_3            
     e( 85 - 86) =     15.08547  eV     2   --> G_4            
     e( 87 - 88) =     15.08684  eV     2   --> G_3            
     e( 87 - 88) =     15.08684  eV     2   --> G_4            
     e( 89 - 90) =     16.82151  eV     2   --> G_3            
     e( 89 - 90) =     16.82151  eV     2   --> G_4            
     e( 91 - 92) =     17.02046  eV     2   --> G_3            
     e( 91 - 92) =     17.02046  eV     2   --> G_4            
     e( 93 - 94) =     18.25079  eV     2   --> G_3            
     e( 93 - 94) =     18.25079  eV     2   --> G_4            
     e( 95 - 96) =     18.43106  eV     2   --> G_3            
     e( 95 - 96) =     18.43106  eV     2   --> G_4            

 **************************************************************************

 **************************************************************************

                    xk=(   0.10000,   0.00000,   0.10226  )

     Band symmetry, C_s (m)     double point group:

     e(  1 -  4) =    -11.99808  eV     4   -->   2 G_3            
     e(  1 -  4) =    -11.99808  eV     4   -->   2 G_4            
     e(  5 -  6) =    -11.99595  eV     2   --> G_3            
     e(  5 -  6) =    -11.99595  eV     2   --> G_4            
     e(  7 -  8) =    -11.99570  eV     2   --> G_3            
     e(  7 -  8) =    -11.99570  eV     2   --> G_4            
     e(  9 - 10) =    -11.99034  eV     2   --> G_3            
     e(  9 - 10) =    -11.99034  eV     2   --> G_4            
     e( 11 - 12) =    -11.98793  eV     2   --> G_3            
     e( 11 - 12) =    -11.98793  eV     2   --> G_4            
     e( 13 - 14) =    -11.97219  eV     2   --> G_3            
     e( 13 - 14) =    -11.97219  eV     2   --> G_4            
     e( 15 - 16) =    -11.96978  eV     2   --> G_3            
     e( 15 - 16) =    -11.96978  eV     2   --> G_4            
     e( 17 - 18) =     -9.05035  eV     2   --> G_3            
     e( 17 - 18) =     -9.05035  eV     2   --> G_4            
     e( 19 - 20) =     -9.05002  eV     2   --> G_3            
     e( 19 - 20) =     -9.05002  eV     2   --> G_4            
     e( 21 - 24) =     -9.04797  eV     4   -->   2 G_3            
     e( 21 - 24) =     -9.04797  eV     4   -->   2 G_4            
     e( 25 - 26) =     -9.02436  eV     2   --> G_3            
     e( 25 - 26) =     -9.02436  eV     2   --> G_4            
     e( 27 - 28) =     -9.02168  eV     2   --> G_3            
     e( 27 - 28) =     -9.02168  eV     2   --> G_4            
     e( 29 - 30) =     -8.98295  eV     2   --> G_3            
     e( 29 - 30) =     -8.98295  eV     2   --> G_4            
     e( 31 - 32) =     -8.98074  eV     2   --> G_3            
     e( 31 - 32) =     -8.98074  eV     2   --> G_4            
     e( 33 - 34) =     -8.93873  eV     2   --> G_3            
     e( 33 - 34) =     -8.93873  eV     2   --> G_4            
     e( 35 - 36) =     -8.93591  eV     2   --> G_3            
     e( 35 - 36) =     -8.93591  eV     2   --> G_4            
     e( 37 - 38) =     -8.91826  eV     2   --> G_3            
     e( 37 - 38) =     -8.91826  eV     2   --> G_4            
     e( 39 - 40) =     -8.91486  eV     2   --> G_3            
     e( 39 - 40) =     -8.91486  eV     2   --> G_4            
     e( 41 - 42) =     -0.65721  eV     2   --> G_3            
     e( 41 - 42) =     -0.65721  eV     2   --> G_4            
     e( 43 - 44) =     -0.52179  eV     2   --> G_3            
     e( 43 - 44) =     -0.52179  eV     2   --> G_4            
     e( 45 - 46) =      0.44766  eV     2   --> G_3            
     e( 45 - 46) =      0.44766  eV     2   --> G_4            
     e( 47 - 48) =      0.68252  eV     2   --> G_3            
     e( 47 - 48) =      0.68252  eV     2   --> G_4            
     e( 49 - 50) =      6.78187  eV     2   --> G_3            
     e( 49 - 50) =      6.78187  eV     2   --> G_4            
     e( 51 - 52) =      7.22737  eV     2   --> G_3            
     e( 51 - 52) =      7.22737  eV     2   --> G_4            
     e( 53 - 54) =      8.47414  eV     2   --> G_3            
     e( 53 - 54) =      8.47414  eV     2   --> G_4            
     e( 55 - 56) =      8.47456  eV     2   --> G_3            
     e( 55 - 56) =      8.47456  eV     2   --> G_4            
     e( 57 - 58) =      8.87211  eV     2   --> G_3            
     e( 57 - 58) =      8.87211  eV     2   --> G_4            
     e( 59 - 60) =      8.88570  eV     2   --> G_3            
     e( 59 - 60) =      8.88570  eV     2   --> G_4            
     e( 61 - 62) =      9.26658  eV     2   --> G_3            
     e( 61 - 62) =      9.26658  eV     2   --> G_4            
     e( 63 - 64) =      9.28947  eV     2   --> G_3            
     e( 63 - 64) =      9.28947  eV     2   --> G_4            
     e( 65 - 66) =      9.72453  eV     2   --> G_3            
     e( 65 - 66) =      9.72453  eV     2   --> G_4            
     e( 67 - 68) =      9.72556  eV     2   --> G_3            
     e( 67 - 68) =      9.72556  eV     2   --> G_4            
     e( 69 - 70) =      9.75254  eV     2   --> G_3            
     e( 69 - 70) =      9.75254  eV     2   --> G_4            
     e( 71 - 72) =      9.78704  eV     2   --> G_3            
     e( 71 - 72) =      9.78704  eV     2   --> G_4            
     e( 73 - 74) =     11.23417  eV     2   --> G_3            
     e( 73 - 74) =     11.23417  eV     2   --> G_4            
     e( 75 - 76) =     11.69802  eV     2   --> G_3            
     e( 75 - 76) =     11.69802  eV     2   --> G_4            
     e( 77 - 78) =     13.18756  eV     2   --> G_3            
     e( 77 - 78) =     13.18756  eV     2   --> G_4            
     e( 79 - 80) =     13.49058  eV     2   --> G_3            
     e( 79 - 80) =     13.49058  eV     2   --> G_4            
     e( 81 - 82) =     14.36798  eV     2   --> G_3            
     e( 81 - 82) =     14.36798  eV     2   --> G_4            
     e( 83 - 84) =     14.46027  eV     2   --> G_3            
     e( 83 - 84) =     14.46027  eV     2   --> G_4            
     e( 85 - 86) =     14.79933  eV     2   --> G_3            
     e( 85 - 86) =     14.79933  eV     2   --> G_4            
     e( 87 - 88) =     15.01064  eV     2   --> G_3            
     e( 87 - 88) =     15.01064  eV     2   --> G_4            
     e( 89 - 90) =     16.39509  eV     2   --> G_3            
     e( 89 - 90) =     16.39509  eV     2   --> G_4            
     e( 91 - 92) =     16.73963  eV     2   --> G_3            
     e( 91 - 92) =     16.73963  eV     2   --> G_4            
     e( 93 - 94) =     18.52015  eV     2   --> G_3            
     e( 93 - 94) =     18.52015  eV     2   --> G_4            
     e( 95 - 96) =     18.72293  eV     2   --> G_3            
     e( 95 - 96) =     18.72293  eV     2   --> G_4            

 **************************************************************************

 **************************************************************************

                    xk=(   0.15000,   0.00000,   0.08948  )

     Band symmetry, C_s (m)     double point group:

     e(  1 -  2) =    -11.99657  eV     2   --> G_3            
     e(  1 -  2) =    -11.99657  eV     2   --> G_4            
     e(  3 -  4) =    -11.99600  eV     2   --> G_3            
     e(  3 -  4) =    -11.99600  eV     2   --> G_4            
     e(  5 -  6) =    -11.99380  eV     2   --> G_3            
     e(  5 -  6) =    -11.99380  eV     2   --> G_4            
     e(  7 -  8) =    -11.99357  eV     2   --> G_3            
     e(  7 -  8) =    -11.99357  eV     2   --> G_4            
     e(  9 - 10) =    -11.98714  eV     2   --> G_3            
     e(  9 - 10) =    -11.98714  eV     2   --> G_4            
     e( 11 - 12) =    -11.98444  eV     2   --> G_3            
     e( 11 - 12) =    -11.98444  eV     2   --> G_4            
     e( 13 - 14) =    -11.97188  eV     2   --> G_3            
     e( 13 - 14) =    -11.97188  eV     2   --> G_4            
     e( 15 - 16) =    -11.96857  eV     2   --> G_3            
     e( 15 - 16) =    -11.96857  eV     2   --> G_4            
     e( 17 - 18) =     -9.04421  eV     2   --> G_3            
     e( 17 - 18) =     -9.04421  eV     2   --> G_4            
     e( 19 - 20) =     -9.04408  eV     2   --> G_3            
     e( 19 - 20) =     -9.04408  eV     2   --> G_4            
     e( 21 - 22) =     -9.04201  eV     2   --> G_3            
     e( 21 - 22) =     -9.04201  eV     2   --> G_4            
     e( 23 - 24) =     -9.04189  eV     2   --> G_3            
     e( 23 - 24) =     -9.04189  eV     2   --> G_4            
     e( 25 - 26) =     -9.01886  eV     2   --> G_3            
     e( 25 - 26) =     -9.01886  eV     2   --> G_4            
     e( 27 - 28) =     -9.01553  eV     2   --> G_3            
     e( 27 - 28) =     -9.01553  eV     2   --> G_4            
     e( 29 - 30) =     -8.98070  eV     2   --> G_3            
     e( 29 - 30) =     -8.98070  eV     2   --> G_4            
     e( 31 - 32) =     -8.97741  eV     2   --> G_3            
     e( 31 - 32) =     -8.97741  eV     2   --> G_4            
     e( 33 - 34) =     -8.94356  eV     2   --> G_3            
     e( 33 - 34) =     -8.94356  eV     2   --> G_4            
     e( 35 - 36) =     -8.93942  eV     2   --> G_3            
     e( 35 - 36) =     -8.93942  eV     2   --> G_4            
     e( 37 - 38) =     -8.92451  eV     2   --> G_3            
     e( 37 - 38) =     -8.92451  eV     2   --> G_4            
     e( 39 - 40) =     -8.91928  eV     2   --> G_3            
     e( 39 - 40) =     -8.91928  eV     2   --> G_4            
     e( 41 - 42) =     -0.53580  eV     2   --> G_3            
     e( 41 - 42) =     -0.53580  eV     2   --> G_4            
     e( 43 - 44) =     -0.33684  eV     2   --> G_3            
     e( 43 - 44) =     -0.33684  eV     2   --> G_4            
     e( 45 - 46) =      0.50460  eV     2   --> G_3            
     e( 45 - 46) =      0.50460  eV     2   --> G_4            
     e( 47 - 48) =      0.84088  eV     2   --> G_3            
     e( 47 - 48) =      0.84088  eV     2   --> G_4            
     e( 49 - 50) =      6.84314  eV     2   --> G_3            
     e( 49 - 50) =      6.84314  eV     2   --> G_4            
     e( 51 - 52) =      7.46275  eV     2   --> G_3            
     e( 51 - 52) =      7.46275  eV     2   --> G_4            
     e( 53 - 54) =      8.47964  eV     2   --> G_3            
     e( 53 - 54) =      8.47964  eV     2   --> G_4            
     e( 55 - 56) =      8.48253  eV     2   --> G_3            
     e( 55 - 56) =      8.48253  eV     2   --> G_4            
     e( 57 - 58) =      8.77986  eV     2   --> G_3            
     e( 57 - 58) =      8.77986  eV     2   --> G_4            
     e( 59 - 60) =      8.84287  eV     2   --> G_3            
     e( 59 - 60) =      8.84287  eV     2   --> G_4            
     e( 61 - 62) =      9.23009  eV     2   --> G_3            
     e( 61 - 62) =      9.23009  eV     2   --> G_4            
     e( 63 - 64) =      9.26621  eV     2   --> G_3            
     e( 63 - 64) =      9.26621  eV     2   --> G_4            
     e( 65 - 66) =      9.63186  eV     2   --> G_3            
     e( 65 - 66) =      9.63186  eV     2   --> G_4            
     e( 67 - 68) =      9.63379  eV     2   --> G_3            
     e( 67 - 68) =      9.63379  eV     2   --> G_4            
     e( 69 - 70) =      9.75015  eV     2   --> G_3            
     e( 69 - 70) =      9.75015  eV     2   --> G_4            
     e( 71 - 72) =      9.84322  eV     2   --> G_3            
     e( 71 - 72) =      9.84322  eV     2   --> G_4            
     e( 73 - 74) =     10.95793  eV     2   --> G_3            
     e( 73 - 74) =     10.95793  eV     2   --> G_4            
     e( 75 - 76) =     11.42802  eV     2   --> G_3            
     e( 75 - 76) =     11.42802  eV     2   --> G_4            
     e( 77 - 78) =     12.72615  eV     2   --> G_3            
     e( 77 - 78) =     12.72615  eV     2   --> G_4            
     e( 79 - 80) =     12.87771  eV     2   --> G_3            
     e( 79 - 80) =     12.87771  eV     2   --> G_4            
     e( 81 - 82) =     13.83597  eV     2   --> G_3            
     e( 81 - 82) =     13.83597  eV     2   --> G_4            
     e( 83 - 84) =     14.02477  eV     2   --> G_3            
     e( 83 - 84) =     14.02477  eV     2   --> G_4            
     e( 85 - 86) =     14.77602  eV     2   --> G_3            
     e( 85 - 86) =     14.77602  eV     2   --> G_4            
     e( 87 - 88) =     15.18516  eV     2   --> G_3            
     e( 87 - 88) =     15.18516  eV     2   --> G_4            
     e( 89 - 90) =     16.23823  eV     2   --> G_3            
     e( 89 - 90) =     16.23823  eV     2   --> G_4            
     e( 91 - 92) =     16.65251  eV     2   --> G_3            
     e( 91 - 92) =     16.65251  eV     2   --> G_4            
     e( 93 - 94) =     18.47939  eV     2   --> G_3            
     e( 93 - 94) =     18.47939  eV     2   --> G_4            
     e( 95 - 96) =     18.63109  eV     2   --> G_3            
     e( 95 - 96) =     18.63109  eV     2   --> G_4            

 **************************************************************************

 **************************************************************************

                    xk=(   0.20000,   0.00000,   0.07670  )

     Band symmetry, C_s (m)     double point group:

     e(  1 -  2) =    -11.99635  eV     2   --> G_3            
     e(  1 -  2) =    -11.99635  eV     2   --> G_4            
     e(  3 -  4) =    -11.99453  eV     2   --> G_3            
     e(  3 -  4) =    -11.99453  eV     2   --> G_4            
     e(  5 -  6) =    -11.99213  eV     2   --> G_3            
     e(  5 -  6) =    -11.99213  eV     2   --> G_4            
     e(  7 -  8) =    -11.99152  eV     2   --> G_3            
     e(  7 -  8) =    -11.99152  eV     2   --> G_4            
     e(  9 - 10) =    -11.98204  eV     2   --> G_3            
     e(  9 - 10) =    -11.98204  eV     2   --> G_4            
     e( 11 - 12) =    -11.97952  eV     2   --> G_3            
     e( 11 - 12) =    -11.97952  eV     2   --> G_4            
     e( 13 - 14) =    -11.97060  eV     2   --> G_3            
     e( 13 - 14) =    -11.97060  eV     2   --> G_4            
     e( 15 - 16) =    -11.96688  eV     2   --> G_3            
     e( 15 - 16) =    -11.96688  eV     2   --> G_4            
     e( 17 - 18) =     -9.04006  eV     2   --> G_3            
     e( 17 - 18) =     -9.04006  eV     2   --> G_4            
     e( 19 - 20) =     -9.03915  eV     2   --> G_3            
     e( 19 - 20) =     -9.03915  eV     2   --> G_4            
     e( 21 - 22) =     -9.03612  eV     2   --> G_3            
     e( 21 - 22) =     -9.03612  eV     2   --> G_4            
     e( 23 - 24) =     -9.03516  eV     2   --> G_3            
     e( 23 - 24) =     -9.03516  eV     2   --> G_4            
     e( 25 - 26) =     -9.00895  eV     2   --> G_3            
     e( 25 - 26) =     -9.00895  eV     2   --> G_4            
     e( 27 - 28) =     -9.00550  eV     2   --> G_3            
     e( 27 - 28) =     -9.00550  eV     2   --> G_4            
     e( 29 - 30) =     -8.97901  eV     2   --> G_3            
     e( 29 - 30) =     -8.97901  eV     2   --> G_4            
     e( 31 - 32) =     -8.97419  eV     2   --> G_3            
     e( 31 - 32) =     -8.97419  eV     2   --> G_4            
     e( 33 - 34) =     -8.94680  eV     2   --> G_3            
     e( 33 - 34) =     -8.94680  eV     2   --> G_4            
     e( 35 - 36) =     -8.94242  eV     2   --> G_3            
     e( 35 - 36) =     -8.94242  eV     2   --> G_4            
     e( 37 - 38) =     -8.93151  eV     2   --> G_3            
     e( 37 - 38) =     -8.93151  eV     2   --> G_4            
     e( 39 - 40) =     -8.92492  eV     2   --> G_3            
     e( 39 - 40) =     -8.92492  eV     2   --> G_4            
     e( 41 - 42) =     -0.35568  eV     2   --> G_3            
     e( 41 - 42) =     -0.35568  eV     2   --> G_4            
     e( 43 - 44) =     -0.09904  eV     2   --> G_3            
     e( 43 - 44) =     -0.09904  eV     2   --> G_4            
     e( 45 - 46) =      0.60774  eV     2   --> G_3            
     e( 45 - 46) =      0.60774  eV     2   --> G_4            
     e( 47 - 48) =      1.02592  eV     2   --> G_3            
     e( 47 - 48) =      1.02592  eV     2   --> G_4            
     e( 49 - 50) =      6.97654  eV     2   --> G_3            
     e( 49 - 50) =      6.97654  eV     2   --> G_4            
     e( 51 - 52) =      7.69398  eV     2   --> G_3            
     e( 51 - 52) =      7.69398  eV     2   --> G_4            
     e( 53 - 54) =      8.41919  eV     2   --> G_3            
     e( 53 - 54) =      8.41919  eV     2   --> G_4            
     e( 55 - 56) =      8.44177  eV     2   --> G_3            
     e( 55 - 56) =      8.44177  eV     2   --> G_4            
     e( 57 - 58) =      8.67195  eV     2   --> G_3            
     e( 57 - 58) =      8.67195  eV     2   --> G_4            
     e( 59 - 60) =      8.78403  eV     2   --> G_3            
     e( 59 - 60) =      8.78403  eV     2   --> G_4            
     e( 61 - 62) =      9.18162  eV     2   --> G_3            
     e( 61 - 62) =      9.18162  eV     2   --> G_4            
     e( 63 - 64) =      9.22725  eV     2   --> G_3            
     e( 63 - 64) =      9.22725  eV     2   --> G_4            
     e( 65 - 66) =      9.53278  eV     2   --> G_3            
     e( 65 - 66) =      9.53278  eV     2   --> G_4            
     e( 67 - 68) =      9.53849  eV     2   --> G_3            
     e( 67 - 68) =      9.53849  eV     2   --> G_4            
     e( 69 - 70) =      9.71216  eV     2   --> G_3            
     e( 69 - 70) =      9.71216  eV     2   --> G_4            
     e( 71 - 72) =      9.78549  eV     2   --> G_3            
     e( 71 - 72) =      9.78549  eV     2   --> G_4            
     e( 73 - 74) =     10.78724  eV     2   --> G_3            
     e( 73 - 74) =     10.78724  eV     2   --> G_4            
     e( 75 - 76) =     10.99459  eV     2   --> G_3            
     e( 75 - 76) =     10.99459  eV     2   --> G_4            
     e( 77 - 78) =     12.03001  eV     2   --> G_3            
     e( 77 - 78) =     12.03001  eV     2   --> G_4            
     e( 79 - 80) =     12.27840  eV     2   --> G_3            
     e( 79 - 80) =     12.27840  eV     2   --> G_4            
     e( 81 - 82) =     13.17028  eV     2   --> G_3            
     e( 81 - 82) =     13.17028  eV     2   --> G_4            
     e( 83 - 84) =     14.05039  eV     2   --> G_3            
     e( 83 - 84) =     14.05039  eV     2   --> G_4            
     e( 85 - 86) =     14.97018  eV     2   --> G_3            
     e( 85 - 86) =     14.97018  eV     2   --> G_4            
     e( 87 - 88) =     15.49050  eV     2   --> G_3            
     e( 87 - 88) =     15.49050  eV     2   --> G_4            
     e( 89 - 90) =     16.24873  eV     2   --> G_3            
     e( 89 - 90) =     16.24873  eV     2   --> G_4            
     e( 91 - 92) =     16.61852  eV     2   --> G_3            
     e( 91 - 92) =     16.61852  eV     2   --> G_4            
     e( 93 - 94) =     17.75410  eV     2   --> G_3            
     e( 93 - 94) =     17.75410  eV     2   --> G_4            
     e( 95 - 96) =     18.52585  eV     2   --> G_3            
     e( 95 - 96) =     18.52585  eV     2   --> G_4            

 **************************************************************************

 **************************************************************************

                    xk=(   0.25000,   0.00000,   0.06391  )

     Band symmetry, C_s (m)     double point group:

     e(  1 -  2) =    -11.99649  eV     2   --> G_3            
     e(  1 -  2) =    -11.99649  eV     2   --> G_4            
     e(  3 -  4) =    -11.99394  eV     2   --> G_3            
     e(  3 -  4) =    -11.99394  eV     2   --> G_4            
     e(  5 -  6) =    -11.99130  eV     2   --> G_3            
     e(  5 -  6) =    -11.99130  eV     2   --> G_4            
     e(  7 -  8) =    -11.98988  eV     2   --> G_3            
     e(  7 -  8) =    -11.98988  eV     2   --> G_4            
     e(  9 - 10) =    -11.97600  eV     2   --> G_3            
     e(  9 - 10) =    -11.97600  eV     2   --> G_4            
     e( 11 - 12) =    -11.97390  eV     2   --> G_3            
     e( 11 - 12) =    -11.97390  eV     2   --> G_4            
     e( 13 - 14) =    -11.96782  eV     2   --> G_3            
     e( 13 - 14) =    -11.96782  eV     2   --> G_4            
     e( 15 - 16) =    -11.96444  eV     2   --> G_3            
     e( 15 - 16) =    -11.96444  eV     2   --> G_4            
     e( 17 - 18) =     -9.03828  eV     2   --> G_3            
     e( 17 - 18) =     -9.03828  eV     2   --> G_4            
     e( 19 - 20) =     -9.03690  eV     2   --> G_3            
     e( 19 - 20) =     -9.03690  eV     2   --> G_4            
     e( 21 - 22) =     -9.03026  eV     2   --> G_3            
     e( 21 - 22) =     -9.03026  eV     2   --> G_4            
     e( 23 - 24) =     -9.02904  eV     2   --> G_3            
     e( 23 - 24) =     -9.02904  eV     2   --> G_4            
     e( 25 - 26) =     -8.99608  eV     2   --> G_3            
     e( 25 - 26) =     -8.99608  eV     2   --> G_4            
     e( 27 - 28) =     -8.99267  eV     2   --> G_3            
     e( 27 - 28) =     -8.99267  eV     2   --> G_4            
     e( 29 - 30) =     -8.98019  eV     2   --> G_3            
     e( 29 - 30) =     -8.98019  eV     2   --> G_4            
     e( 31 - 32) =     -8.97338  eV     2   --> G_3            
     e( 31 - 32) =     -8.97338  eV     2   --> G_4            
     e( 33 - 34) =     -8.94506  eV     2   --> G_3            
     e( 33 - 34) =     -8.94506  eV     2   --> G_4            
     e( 35 - 36) =     -8.94287  eV     2   --> G_3            
     e( 35 - 36) =     -8.94287  eV     2   --> G_4            
     e( 37 - 38) =     -8.93641  eV     2   --> G_3            
     e( 37 - 38) =     -8.93641  eV     2   --> G_4            
     e( 39 - 40) =     -8.93035  eV     2   --> G_3            
     e( 39 - 40) =     -8.93035  eV     2   --> G_4            
     e( 41 - 42) =     -0.12240  eV     2   --> G_3            
     e( 41 - 42) =     -0.12240  eV     2   --> G_4            
     e( 43 - 44) =      0.18243  eV     2   --> G_3            
     e( 43 - 44) =      0.18243  eV     2   --> G_4            
     e( 45 - 46) =      0.75257  eV     2   --> G_3            
     e( 45 - 46) =      0.75257  eV     2   --> G_4            
     e( 47 - 48) =      1.22588  eV     2   --> G_3            
     e( 47 - 48) =      1.22588  eV     2   --> G_4            
     e( 49 - 50) =      7.17426  eV     2   --> G_3            
     e( 49 - 50) =      7.17426  eV     2   --> G_4            
     e( 51 - 52) =      7.81689  eV     2   --> G_3            
     e( 51 - 52) =      7.81689  eV     2   --> G_4            
     e( 53 - 54) =      8.20489  eV     2   --> G_3            
     e( 53 - 54) =      8.20489  eV     2   --> G_4            
     e( 55 - 56) =      8.26463  eV     2   --> G_3            
     e( 55 - 56) =      8.26463  eV     2   --> G_4            
     e( 57 - 58) =      8.61346  eV     2   --> G_3            
     e( 57 - 58) =      8.61346  eV     2   --> G_4            
     e( 59 - 60) =      8.71205  eV     2   --> G_3            
     e( 59 - 60) =      8.71205  eV     2   --> G_4            
     e( 61 - 62) =      9.09368  eV     2   --> G_3            
     e( 61 - 62) =      9.09368  eV     2   --> G_4            
     e( 63 - 64) =      9.14270  eV     2   --> G_3            
     e( 63 - 64) =      9.14270  eV     2   --> G_4            
     e( 65 - 66) =      9.47535  eV     2   --> G_3            
     e( 65 - 66) =      9.47535  eV     2   --> G_4            
     e( 67 - 68) =      9.47676  eV     2   --> G_3            
     e( 67 - 68) =      9.47676  eV     2   --> G_4            
     e( 69 - 70) =      9.64892  eV     2   --> G_3            
     e( 69 - 70) =      9.64892  eV     2   --> G_4            
     e( 71 - 72) =      9.65197  eV     2   --> G_3            
     e( 71 - 72) =      9.65197  eV     2   --> G_4            
     e( 73 - 74) =     10.57931  eV     2   --> G_3            
     e( 73 - 74) =     10.57931  eV     2   --> G_4            
     e( 75 - 76) =     10.84972  eV     2   --> G_3            
     e( 75 - 76) =     10.84972  eV     2   --> G_4            
     e( 77 - 78) =     11.22270  eV     2   --> G_3            
     e( 77 - 78) =     11.22270  eV     2   --> G_4            
     e( 79 - 80) =     11.75015  eV     2   --> G_3            
     e( 79 - 80) =     11.75015  eV     2   --> G_4            
     e( 81 - 82) =     12.73531  eV     2   --> G_3            
     e( 81 - 82) =     12.73531  eV     2   --> G_4            
     e( 83 - 84) =     14.25841  eV     2   --> G_3            
     e( 83 - 84) =     14.25841  eV     2   --> G_4            
     e( 85 - 86) =     15.26283  eV     2   --> G_3            
     e( 85 - 86) =     15.26283  eV     2   --> G_4            
     e( 87 - 88) =     15.77940  eV     2   --> G_3            
     e( 87 - 88) =     15.77940  eV     2   --> G_4            
     e( 89 - 90) =     16.41479  eV     2   --> G_3            
     e( 89 - 90) =     16.41479  eV     2   --> G_4            
     e( 91 - 92) =     16.42730  eV     2   --> G_3            
     e( 91 - 92) =     16.42730  eV     2   --> G_4            
     e( 93 - 94) =     17.17058  eV     2   --> G_3            
     e( 93 - 94) =     17.17058  eV     2   --> G_4            
     e( 95 - 96) =     18.24575  eV     2   --> G_3            
     e( 95 - 96) =     18.24575  eV     2   --> G_4            

 **************************************************************************

 **************************************************************************

                    xk=(   0.30000,   0.00000,   0.05113  )

     Band symmetry, C_s (m)     double point group:

     e(  1 -  2) =    -11.99679  eV     2   --> G_3            
     e(  1 -  2) =    -11.99679  eV     2   --> G_4            
     e(  3 -  4) =    -11.99392  eV     2   --> G_3            
     e(  3 -  4) =    -11.99392  eV     2   --> G_4            
     e(  5 -  6) =    -11.99120  eV     2   --> G_3            
     e(  5 -  6) =    -11.99120  eV     2   --> G_4            
     e(  7 -  8) =    -11.98910  eV     2   --> G_3            
     e(  7 -  8) =    -11.98910  eV     2   --> G_4            
     e(  9 - 10) =    -11.97007  eV     2   --> G_3            
     e(  9 - 10) =    -11.97007  eV     2   --> G_4            
     e( 11 - 12) =    -11.96835  eV     2   --> G_3            
     e( 11 - 12) =    -11.96835  eV     2   --> G_4            
     e( 13 - 14) =    -11.96406  eV     2   --> G_3            
     e( 13 - 14) =    -11.96406  eV     2   --> G_4            
     e( 15 - 16) =    -11.96133  eV     2   --> G_3            
     e( 15 - 16) =    -11.96133  eV     2   --> G_4            
     e( 17 - 18) =     -9.03787  eV     2   --> G_3            
     e( 17 - 18) =     -9.03787  eV     2   --> G_4            
     e( 19 - 20) =     -9.03655  eV     2   --> G_3            
     e( 19 - 20) =     -9.03655  eV     2   --> G_4            
     e( 21 - 22) =     -9.02587  eV     2   --> G_3            
     e( 21 - 22) =     -9.02587  eV     2   --> G_4            
     e( 23 - 24) =     -9.02470  eV     2   --> G_3            
     e( 23 - 24) =     -9.02470  eV     2   --> G_4            
     e( 25 - 26) =     -8.98544  eV     2   --> G_3            
     e( 25 - 26) =     -8.98544  eV     2   --> G_4            
     e( 27 - 28) =     -8.98465  eV     2   --> G_3            
     e( 27 - 28) =     -8.98465  eV     2   --> G_4            
     e( 29 - 30) =     -8.97828  eV     2   --> G_3            
     e( 29 - 30) =     -8.97828  eV     2   --> G_4            
     e( 31 - 32) =     -8.97505  eV     2   --> G_3            
     e( 31 - 32) =     -8.97505  eV     2   --> G_4            
     e( 33 - 34) =     -8.94437  eV     2   --> G_3            
     e( 33 - 34) =     -8.94437  eV     2   --> G_4            
     e( 35 - 36) =     -8.93980  eV     2   --> G_3            
     e( 35 - 36) =     -8.93980  eV     2   --> G_4            
     e( 37 - 38) =     -8.93270  eV     2   --> G_3            
     e( 37 - 38) =     -8.93270  eV     2   --> G_4            
     e( 39 - 40) =     -8.93245  eV     2   --> G_3            
     e( 39 - 40) =     -8.93245  eV     2   --> G_4            
     e( 41 - 42) =      0.15420  eV     2   --> G_3            
     e( 41 - 42) =      0.15420  eV     2   --> G_4            
     e( 43 - 44) =      0.49166  eV     2   --> G_3            
     e( 43 - 44) =      0.49166  eV     2   --> G_4            
     e( 45 - 46) =      0.93068  eV     2   --> G_3            
     e( 45 - 46) =      0.93068  eV     2   --> G_4            
     e( 47 - 48) =      1.42408  eV     2   --> G_3            
     e( 47 - 48) =      1.42408  eV     2   --> G_4            
     e( 49 - 50) =      7.41291  eV     2   --> G_3            
     e( 49 - 50) =      7.41291  eV     2   --> G_4            
     e( 51 - 52) =      7.52909  eV     2   --> G_3            
     e( 51 - 52) =      7.52909  eV     2   --> G_4            
     e( 53 - 54) =      7.88254  eV     2   --> G_3            
     e( 53 - 54) =      7.88254  eV     2   --> G_4            
     e( 55 - 56) =      8.04046  eV     2   --> G_3            
     e( 55 - 56) =      8.04046  eV     2   --> G_4            
     e( 57 - 58) =      8.62683  eV     2   --> G_3            
     e( 57 - 58) =      8.62683  eV     2   --> G_4            
     e( 59 - 60) =      8.63896  eV     2   --> G_3            
     e( 59 - 60) =      8.63896  eV     2   --> G_4            
     e( 61 - 62) =      9.04809  eV     2   --> G_3            
     e( 61 - 62) =      9.04809  eV     2   --> G_4            
[...]
     e( 67 - 68) =      9.53855  eV     2   --> G_5  D_5       
     e( 69 - 70) =      9.72102  eV     2   --> G_5  D_5       
     e( 71 - 72) =     10.05505  eV     2   --> G_5  D_5       
     e( 73 - 74) =     10.72681  eV     2   --> G_5  D_5       
     e( 75 - 76) =     11.92687  eV     2   --> G_5  D_5       
     e( 77 - 78) =     12.61723  eV     2   --> G_5  D_5       
     e( 79 - 80) =     12.77808  eV     2   --> G_5  D_5       
     e( 81 - 82) =     13.44347  eV     2   --> G_5  D_5       
     e( 83 - 84) =     13.85288  eV     2   --> G_5  D_5       
     e( 85 - 86) =     14.15081  eV     2   --> G_5  D_5       
     e( 87 - 88) =     14.33683  eV     2   --> G_5  D_5       
     e( 89 - 90) =     15.53495  eV     2   --> G_5  D_5       
     e( 91 - 92) =     15.81395  eV     2   --> G_5  D_5       
     e( 93 - 94) =     18.52289  eV     2   --> G_5  D_5       
     e( 95 - 96) =     18.83963  eV     2   --> G_5  D_5       

 **************************************************************************

 **************************************************************************

                    xk=(   0.10000,   0.10000,   0.00000  )

     Band symmetry, C_2v (mm2)  double point group:

     e(  1 -  2) =    -11.99527  eV     2   --> G_5  D_5       
     e(  3 -  4) =    -11.99500  eV     2   --> G_5  D_5       
     e(  5 -  6) =    -11.99317  eV     2   --> G_5  D_5       
     e(  7 -  8) =    -11.99216  eV     2   --> G_5  D_5       
     e(  9 - 10) =    -11.99141  eV     2   --> G_5  D_5       
     e( 11 - 12) =    -11.98322  eV     2   --> G_5  D_5       
     e( 13 - 14) =    -11.97633  eV     2   --> G_5  D_5       
     e( 15 - 16) =    -11.96759  eV     2   --> G_5  D_5       
     e( 17 - 18) =     -9.04403  eV     2   --> G_5  D_5       
     e( 19 - 20) =     -9.04262  eV     2   --> G_5  D_5       
     e( 21 - 24) =     -9.04012  eV     4   -->   2 G_5  D_5       
     e( 25 - 26) =     -9.02484  eV     2   --> G_5  D_5       
     e( 27 - 28) =     -9.01651  eV     2   --> G_5  D_5       
     e( 29 - 30) =     -8.98343  eV     2   --> G_5  D_5       
     e( 31 - 32) =     -8.97624  eV     2   --> G_5  D_5       
     e( 33 - 34) =     -8.94609  eV     2   --> G_5  D_5       
     e( 35 - 36) =     -8.93364  eV     2   --> G_5  D_5       
     e( 37 - 38) =     -8.93108  eV     2   --> G_5  D_5       
     e( 39 - 40) =     -8.91669  eV     2   --> G_5  D_5       
     e( 41 - 42) =     -0.64968  eV     2   --> G_5  D_5       
     e( 43 - 44) =     -0.09321  eV     2   --> G_5  D_5       
     e( 45 - 46) =      0.13381  eV     2   --> G_5  D_5       
     e( 47 - 48) =      0.99981  eV     2   --> G_5  D_5       
     e( 49 - 50) =      6.49270  eV     2   --> G_5  D_5       
     e( 51 - 52) =      8.01241  eV     2   --> G_5  D_5       
     e( 53 - 54) =      8.50317  eV     2   --> G_5  D_5       
     e( 55 - 56) =      8.50795  eV     2   --> G_5  D_5       
     e( 57 - 58) =      8.74724  eV     2   --> G_5  D_5       
     e( 59 - 60) =      8.86103  eV     2   --> G_5  D_5       
     e( 61 - 62) =      9.05707  eV     2   --> G_5  D_5       
     e( 63 - 64) =      9.28393  eV     2   --> G_5  D_5       
     e( 65 - 66) =      9.61804  eV     2   --> G_5  D_5       
     e( 67 - 68) =      9.62617  eV     2   --> G_5  D_5       
     e( 69 - 70) =      9.72705  eV     2   --> G_5  D_5       
     e( 71 - 72) =     10.05520  eV     2   --> G_5  D_5       
     e( 73 - 74) =     10.59116  eV     2   --> G_5  D_5       
     e( 75 - 76) =     12.08831  eV     2   --> G_5  D_5       
     e( 77 - 78) =     12.79119  eV     2   --> G_5  D_5       
     e( 79 - 80) =     13.21405  eV     2   --> G_5  D_5       
     e( 81 - 82) =     13.79507  eV     2   --> G_5  D_5       
     e( 83 - 84) =     14.24012  eV     2   --> G_5  D_5       
     e( 85 - 86) =     14.54315  eV     2   --> G_5  D_5       
     e( 87 - 88) =     14.66545  eV     2   --> G_5  D_5       
     e( 89 - 90) =     15.63361  eV     2   --> G_5  D_5       
     e( 91 - 92) =     16.27614  eV     2   --> G_5  D_5       
     e( 93 - 94) =     18.40814  eV     2   --> G_5  D_5       
     e( 95 - 96) =     18.91189  eV     2   --> G_5  D_5       

 **************************************************************************

 **************************************************************************

                    xk=(   0.07500,   0.07500,   0.00000  )

     Band symmetry, C_2v (mm2)  double point group:

     e(  1 -  2) =    -11.99764  eV     2   --> G_5  D_5       
     e(  3 -  4) =    -11.99703  eV     2   --> G_5  D_5       
     e(  5 -  6) =    -11.99530  eV     2   --> G_5  D_5       
     e(  7 -  8) =    -11.99476  eV     2   --> G_5  D_5       
     e(  9 - 10) =    -11.99281  eV     2   --> G_5  D_5       
     e( 11 - 12) =    -11.98365  eV     2   --> G_5  D_5       
     e( 13 - 14) =    -11.97692  eV     2   --> G_5  D_5       
     e( 15 - 16) =    -11.96759  eV     2   --> G_5  D_5       
     e( 17 - 18) =     -9.04962  eV     2   --> G_5  D_5       
     e( 19 - 20) =     -9.04822  eV     2   --> G_5  D_5       
     e( 21 - 24) =     -9.04635  eV     4   -->   2 G_5  D_5       
     e( 25 - 26) =     -9.02716  eV     2   --> G_5  D_5       
     e( 27 - 28) =     -9.01852  eV     2   --> G_5  D_5       
     e( 29 - 30) =     -8.98565  eV     2   --> G_5  D_5       
     e( 31 - 32) =     -8.97816  eV     2   --> G_5  D_5       
     e( 33 - 34) =     -8.94216  eV     2   --> G_5  D_5       
     e( 35 - 36) =     -8.93016  eV     2   --> G_5  D_5       
     e( 37 - 38) =     -8.92607  eV     2   --> G_5  D_5       
     e( 39 - 40) =     -8.91262  eV     2   --> G_5  D_5       
     e( 41 - 42) =     -0.75413  eV     2   --> G_5  D_5       
     e( 43 - 44) =     -0.19205  eV     2   --> G_5  D_5       
     e( 45 - 46) =      0.04272  eV     2   --> G_5  D_5       
     e( 47 - 48) =      0.92698  eV     2   --> G_5  D_5       
     e( 49 - 50) =      6.37133  eV     2   --> G_5  D_5       
     e( 51 - 52) =      7.92889  eV     2   --> G_5  D_5       
     e( 53 - 54) =      8.48197  eV     2   --> G_5  D_5       
     e( 55 - 56) =      8.48410  eV     2   --> G_5  D_5       
     e( 57 - 58) =      8.81831  eV     2   --> G_5  D_5       
     e( 59 - 60) =      8.88528  eV     2   --> G_5  D_5       
     e( 61 - 62) =      9.12977  eV     2   --> G_5  D_5       
     e( 63 - 64) =      9.29899  eV     2   --> G_5  D_5       
     e( 65 - 66) =      9.70099  eV     2   --> G_5  D_5       
     e( 67 - 68) =      9.70534  eV     2   --> G_5  D_5       
     e( 69 - 70) =      9.73475  eV     2   --> G_5  D_5       
     e( 71 - 72) =      9.94462  eV     2   --> G_5  D_5       
     e( 73 - 74) =     10.56169  eV     2   --> G_5  D_5       
     e( 75 - 76) =     12.22927  eV     2   --> G_5  D_5       
     e( 77 - 78) =     12.95864  eV     2   --> G_5  D_5       
     e( 79 - 80) =     13.65701  eV     2   --> G_5  D_5       
     e( 81 - 82) =     14.13793  eV     2   --> G_5  D_5       
     e( 83 - 84) =     14.62466  eV     2   --> G_5  D_5       
     e( 85 - 86) =     14.91222  eV     2   --> G_5  D_5       
     e( 87 - 88) =     14.91451  eV     2   --> G_5  D_5       
     e( 89 - 90) =     15.83121  eV     2   --> G_5  D_5       
     e( 91 - 92) =     16.76596  eV     2   --> G_5  D_5       
     e( 93 - 94) =     17.92186  eV     2   --> G_5  D_5       
     e( 95 - 96) =     19.06399  eV     2   --> G_5  D_5       

 **************************************************************************

 **************************************************************************

                    xk=(   0.05000,   0.05000,   0.00000  )

     Band symmetry, C_2v (mm2)  double point group:

     e(  1 -  2) =    -11.99925  eV     2   --> G_5  D_5       
     e(  3 -  4) =    -11.99895  eV     2   --> G_5  D_5       
     e(  5 -  6) =    -11.99708  eV     2   --> G_5  D_5       
     e(  7 -  8) =    -11.99675  eV     2   --> G_5  D_5       
     e(  9 - 10) =    -11.99378  eV     2   --> G_5  D_5       
     e( 11 - 12) =    -11.98403  eV     2   --> G_5  D_5       
     e( 13 - 14) =    -11.97729  eV     2   --> G_5  D_5       
     e( 15 - 16) =    -11.96768  eV     2   --> G_5  D_5       
     e( 17 - 18) =     -9.05354  eV     2   --> G_5  D_5       
     e( 19 - 20) =     -9.05248  eV     2   --> G_5  D_5       
     e( 21 - 22) =     -9.05100  eV     2   --> G_5  D_5       
     e( 23 - 24) =     -9.05081  eV     2   --> G_5  D_5       
     e( 25 - 26) =     -9.02904  eV     2   --> G_5  D_5       
     e( 27 - 28) =     -9.02002  eV     2   --> G_5  D_5       
     e( 29 - 30) =     -8.98723  eV     2   --> G_5  D_5       
     e( 31 - 32) =     -8.97962  eV     2   --> G_5  D_5       
     e( 33 - 34) =     -8.93912  eV     2   --> G_5  D_5       
     e( 35 - 36) =     -8.92789  eV     2   --> G_5  D_5       
     e( 37 - 38) =     -8.92251  eV     2   --> G_5  D_5       
     e( 39 - 40) =     -8.90970  eV     2   --> G_5  D_5       
     e( 41 - 42) =     -0.82933  eV     2   --> G_5  D_5       
     e( 43 - 44) =     -0.26355  eV     2   --> G_5  D_5       
     e( 45 - 46) =     -0.02260  eV     2   --> G_5  D_5       
     e( 47 - 48) =      0.87474  eV     2   --> G_5  D_5       
     e( 49 - 50) =      6.28267  eV     2   --> G_5  D_5       
     e( 51 - 52) =      7.86753  eV     2   --> G_5  D_5       
     e( 53 - 54) =      8.46587  eV     2   --> G_5  D_5       
     e( 55 - 56) =      8.46652  eV     2   --> G_5  D_5       
     e( 57 - 58) =      8.89449  eV     2   --> G_5  D_5       
     e( 59 - 60) =      8.89796  eV     2   --> G_5  D_5       
     e( 61 - 62) =      9.20037  eV     2   --> G_5  D_5       
     e( 63 - 64) =      9.31172  eV     2   --> G_5  D_5       
     e( 65 - 66) =      9.72830  eV     2   --> G_5  D_5       
     e( 67 - 68) =      9.76397  eV     2   --> G_5  D_5       
     e( 69 - 70) =      9.76822  eV     2   --> G_5  D_5       
     e( 71 - 72) =      9.77867  eV     2   --> G_5  D_5       
     e( 73 - 74) =     10.58729  eV     2   --> G_5  D_5       
     e( 75 - 76) =     12.33692  eV     2   --> G_5  D_5       
     e( 77 - 78) =     13.10512  eV     2   --> G_5  D_5       
     e( 79 - 80) =     14.08040  eV     2   --> G_5  D_5       
     e( 81 - 82) =     14.44671  eV     2   --> G_5  D_5       
     e( 83 - 84) =     14.96075  eV     2   --> G_5  D_5       
     e( 85 - 86) =     15.08066  eV     2   --> G_5  D_5       
     e( 87 - 88) =     15.21229  eV     2   --> G_5  D_5       
     e( 89 - 90) =     16.11785  eV     2   --> G_5  D_5       
     e( 91 - 92) =     17.26142  eV     2   --> G_5  D_5       
     e( 93 - 94) =     17.42616  eV     2   --> G_5  D_5       
     e( 95 - 96) =     18.76493  eV     2   --> G_5  D_5       

 **************************************************************************

 **************************************************************************

                    xk=(   0.02500,   0.02500,   0.00000  )

     Band symmetry, C_2v (mm2)  double point group:

     e(  1 -  2) =    -12.00028  eV     2   --> G_5  D_5       
     e(  3 -  4) =    -12.00013  eV     2   --> G_5  D_5       
     e(  5 -  8) =    -11.99805  eV     4   -->   2 G_5  D_5       
     e(  9 - 10) =    -11.99428  eV     2   --> G_5  D_5       
     e( 11 - 12) =    -11.98430  eV     2   --> G_5  D_5       
     e( 13 - 14) =    -11.97739  eV     2   --> G_5  D_5       
     e( 15 - 16) =    -11.96764  eV     2   --> G_5  D_5       
     e( 17 - 18) =     -9.05585  eV     2   --> G_5  D_5       
     e( 19 - 20) =     -9.05501  eV     2   --> G_5  D_5       
     e( 21 - 22) =     -9.05394  eV     2   --> G_5  D_5       
     e( 23 - 24) =     -9.05340  eV     2   --> G_5  D_5       
     e( 25 - 26) =     -9.03016  eV     2   --> G_5  D_5       
     e( 27 - 28) =     -9.02094  eV     2   --> G_5  D_5       
     e( 29 - 30) =     -8.98812  eV     2   --> G_5  D_5       
     e( 31 - 32) =     -8.98045  eV     2   --> G_5  D_5       
     e( 33 - 34) =     -8.93724  eV     2   --> G_5  D_5       
     e( 35 - 36) =     -8.92651  eV     2   --> G_5  D_5       
     e( 37 - 38) =     -8.92024  eV     2   --> G_5  D_5       
     e( 39 - 40) =     -8.90798  eV     2   --> G_5  D_5       
     e( 41 - 42) =     -0.87468  eV     2   --> G_5  D_5       
     e( 43 - 44) =     -0.30680  eV     2   --> G_5  D_5       
     e( 45 - 46) =     -0.06188  eV     2   --> G_5  D_5       
     e( 47 - 48) =      0.84330  eV     2   --> G_5  D_5       
     e( 49 - 50) =      6.22875  eV     2   --> G_5  D_5       
     e( 51 - 52) =      7.83008  eV     2   --> G_5  D_5       
     e( 53 - 54) =      8.45577  eV     2   --> G_5  D_5       
     e( 55 - 56) =      8.45591  eV     2   --> G_5  D_5       
     e( 57 - 58) =      8.90366  eV     2   --> G_5  D_5       
     e( 59 - 60) =      8.95570  eV     2   --> G_5  D_5       
     e( 61 - 62) =      9.28068  eV     2   --> G_5  D_5       
     e( 63 - 64) =      9.32062  eV     2   --> G_5  D_5       
     e( 65 - 66) =      9.60915  eV     2   --> G_5  D_5       
     e( 67 - 68) =      9.73192  eV     2   --> G_5  D_5       
     e( 69 - 70) =      9.80117  eV     2   --> G_5  D_5       
     e( 71 - 72) =      9.80268  eV     2   --> G_5  D_5       
     e( 73 - 74) =     10.61517  eV     2   --> G_5  D_5       
     e( 75 - 76) =     12.40336  eV     2   --> G_5  D_5       
     e( 77 - 78) =     13.20809  eV     2   --> G_5  D_5       
     e( 79 - 80) =     14.43257  eV     2   --> G_5  D_5       
     e( 81 - 82) =     14.67533  eV     2   --> G_5  D_5       
     e( 83 - 84) =     15.03268  eV     2   --> G_5  D_5       
     e( 85 - 86) =     15.35332  eV     2   --> G_5  D_5       
     e( 87 - 88) =     15.40391  eV     2   --> G_5  D_5       
     e( 89 - 90) =     16.39788  eV     2   --> G_5  D_5       
     e( 91 - 92) =     16.99898  eV     2   --> G_5  D_5       
     e( 93 - 94) =     17.70052  eV     2   --> G_5  D_5       
     e( 95 - 96) =     18.48995  eV     2   --> G_5  D_5       

 **************************************************************************

 **************************************************************************

                    xk=(   0.00000,   0.00000,   0.00000  )

     double point group D_4h(4/mmm)
     there are 14 classes and  4 irreducible representations
     the character table:

       E     -E    2C4   -2C4   C2    2C2' 2C2'' i     -i    2S4   -2S4   s_h 
                               -C2   -2C2' -2C2'                         -s_h 
G_6+   2.00 -2.00  1.41 -1.41  0.00  0.00  0.00  2.00 -2.00  1.41 -1.41  0.00
G_7+   2.00 -2.00 -1.41  1.41  0.00  0.00  0.00  2.00 -2.00 -1.41  1.41  0.00
G_6-   2.00 -2.00  1.41 -1.41  0.00  0.00  0.00 -2.00  2.00 -1.41  1.41  0.00
G_7-   2.00 -2.00 -1.41  1.41  0.00  0.00  0.00 -2.00  2.00  1.41 -1.41  0.00

        2s_v  2s_d
       -2s_v -2s_d
G_6+   0.00  0.00
G_7+   0.00  0.00
G_6-   0.00  0.00
G_7-   0.00  0.00

     the symmetry operations in each class and the name of the first element:

     E             1
                                                                 
     -E           -1
                                                                 
     2C4           7    8
                                                                 
     -2C4         -7   -8
                                                                 
      C2  -C2      2   -2
                                                                 
      2C2'-2C2'    3   -3    4   -4
                                                                 
     2C2''-2C2'    5   -5   -6    6
                                                                 
     i             9
                                                                 
     -i           -9
                                                                 
     2S4          15   16
                                                                 
     -2S4        -15  -16
                                                                 
      s_h -s_h    10  -10
                                                                 
      2s_v-2s_v   11  -11   12  -12
                                                                 
      2s_d-2s_d   13  -13  -14   14
                                                                 

     Band symmetry, D_4h(4/mmm) double point group:

     e(  1 -  4) =    -12.00070  eV     4   --> G_7+  M_7+     
     e(  1 -  4) =    -12.00070  eV     4   --> G_7-  M_7-     
     e(  5 -  8) =    -11.99843  eV     4   --> G_7+  M_7+     
     e(  5 -  8) =    -11.99843  eV     4   --> G_7-  M_7-     
     e(  9 - 10) =    -11.99456  eV     2   --> G_6+  M_6+     
     e( 11 - 12) =    -11.98438  eV     2   --> G_6+  M_6+     
     e( 13 - 14) =    -11.97747  eV     2   --> G_6-  M_6-     
     e( 15 - 16) =    -11.96769  eV     2   --> G_6-  M_6-     
     e( 17 - 18) =     -9.05658  eV     2   --> G_7-  M_7-     
     e( 19 - 20) =     -9.05604  eV     2   --> G_7+  M_7+     
     e( 21 - 22) =     -9.05487  eV     2   --> G_7+  M_7+     
     e( 23 - 24) =     -9.05432  eV     2   --> G_7-  M_7-     
     e( 25 - 26) =     -9.03065  eV     2   --> G_6+  M_6+     
     e( 27 - 28) =     -9.02125  eV     2   --> G_6+  M_6+     
     e( 29 - 30) =     -8.98845  eV     2   --> G_6-  M_6-     
     e( 31 - 32) =     -8.98075  eV     2   --> G_6-  M_6-     
     e( 33 - 34) =     -8.93664  eV     2   --> G_7-  M_7-     
     e( 35 - 36) =     -8.92615  eV     2   --> G_7+  M_7+     
     e( 37 - 38) =     -8.91948  eV     2   --> G_7-  M_7-     
     e( 39 - 40) =     -8.90743  eV     2   --> G_7+  M_7+     
     e( 41 - 42) =     -0.88983  eV     2   --> G_6+  M_6+     
     e( 43 - 44) =     -0.32128  eV     2   --> G_6+  M_6+     
     e( 45 - 46) =     -0.07499  eV     2   --> G_6-  M_6-     
     e( 47 - 48) =      0.83281  eV     2   --> G_6-  M_6-     
     e( 49 - 50) =      6.21066  eV     2   --> G_6+  M_6+     
     e( 51 - 52) =      7.81750  eV     2   --> G_6+  M_6+     
     e( 53 - 54) =      8.45217  eV     2   --> G_7+  M_7+     
     e( 55 - 56) =      8.45254  eV     2   --> G_7+  M_7+     
     e( 57 - 58) =      8.90524  eV     2   --> G_6+  M_6+     
     e( 59 - 60) =      8.97914  eV     2   --> G_6+  M_6+     
     e( 61 - 62) =      9.32382  eV     2   --> G_7+  M_7+     
     e( 63 - 64) =      9.34351  eV     2   --> G_7+  M_7+     
     e( 65 - 66) =      9.51310  eV     2   --> G_6-  M_6-     
     e( 67 - 68) =      9.73279  eV     2   --> G_6+  M_6+     
     e( 69 - 70) =      9.81245  eV     2   --> G_7+  M_7+     
     e( 71 - 72) =      9.81441  eV     2   --> G_7+  M_7+     
     e( 73 - 74) =     10.62594  eV     2   --> G_6+  M_6+     
     e( 75 - 76) =     12.42566  eV     2   --> G_6-  M_6-     
     e( 77 - 78) =     13.24552  eV     2   --> G_6-  M_6-     
     e( 79 - 80) =     14.59458  eV     2   --> G_6+  M_6+     
     e( 81 - 82) =     14.76276  eV     2   --> G_7-  M_7-     
     e( 83 - 84) =     15.00869  eV     2   --> G_6-  M_6-     
     e( 85 - 86) =     15.46797  eV     2   --> G_6+  M_6+     
     e( 87 - 88) =     15.50377  eV     2   --> G_7-  M_7-     
     e( 89 - 90) =     16.52168  eV     2   --> G_7+  M_7+     
     e( 91 - 92) =     16.80582  eV     2   --> G_6+  M_6+     
     e( 93 - 94) =     17.90562  eV     2   --> G_7+  M_7+     
     e( 95 - 96) =     18.38959  eV     2   --> G_6+  M_6+     

 **************************************************************************
 
     BANDS        :   3m23.46s CPU   4m13.48s WALL

 
   This run was terminated on:  14:44:26   6Jan2024            

=------------------------------------------------------------------------------=
   JOB DONE.
=------------------------------------------------------------------------------=
