
     Program PWSCF v.7.2 starts on  6Jan2024 at 11:53:32 

     This program is part of the open-source Quantum ESPRESSO suite
     for quantum simulation of materials; please cite
         "P. Giannozzi et al., J. Phys.:Condens. Matter 21 395502 (2009);
         "P. Giannozzi et al., J. Phys.:Condens. Matter 29 465901 (2017);
         "P. Giannozzi et al., J. Chem. Phys. 152 154105 (2020);
          URL http://www.quantum-espresso.org", 
     in publications or presentations arising from this work. More details at
     http://www.quantum-espresso.org/quote

     Parallel version (MPI), running on     4 processors

     MPI processes distributed on     1 nodes
     12583 MiB available memory on the printing compute node when the environment starts
 
     Waiting for input...
     Reading input from standard input

     Current dimensions of program PWSCF are:
     Max number of different atomic species (ntypx) = 10
     Max number of k-points (npk) =  40000
     Max angular momentum in pseudopotentials (lmaxx) =  4

     File ./Bi2Pd/Bi2Pd.update deleted, as requested

     File ./Bi2Pd/Bi2Pd.bfgs deleted, as requested
     file Bi.rel-pz-dn-rrkjus_psl.1.0.0.UPF: wavefunction(s)  5D 5D renormalized
     file Pd.rel-pz-n-rrkjus_psl.1.0.0.UPF: wavefunction(s)  4D 4D renormalized
     Found identity + (  0.5000  0.5000 -0.5000) symmetry
     This is a supercell, fractional translations are disabled
 
     R & G space division:  proc/nbgrp/npool/nimage =       4
     Subspace diagonalization in iterative solution of the eigenvalue problem:
     a serial algorithm will be used

 
     Parallelization info
     --------------------
     sticks:   dense  smooth     PW     G-vecs:    dense   smooth      PW
     Min         439     194     59                54325    16096    2617
     Max         440     195     61                54338    16109    2620
     Sum        1757     777    241               217317    64403   10475
 
     Using Slab Decomposition
 


     bravais-lattice index     =            6
     lattice parameter (alat)  =       6.3999  a.u.
     unit-cell volume          =    1025.3225 (a.u.)^3
     number of atoms/cell      =            6
     number of atomic types    =            2
     number of electrons       =        80.00
     number of Kohn-Sham states=           96
     kinetic-energy cutoff     =      60.0000  Ry
     charge density cutoff     =     540.0000  Ry
     scf convergence threshold =      1.0E-08
     mixing beta               =       0.1000
     number of iterations used =            8  plain     mixing
     Exchange-correlation= LDA
                           (   1   1   0   0   0   0   0)
     Non magnetic calculation with spin-orbit


     celldm(1)=   6.399898  celldm(2)=   0.000000  celldm(3)=   3.911483
     celldm(4)=   0.000000  celldm(5)=   0.000000  celldm(6)=   0.000000

     crystal axes: (cart. coord. in units of alat)
               a(1) = (   1.000000   0.000000   0.000000 )  
               a(2) = (   0.000000   1.000000   0.000000 )  
               a(3) = (   0.000000   0.000000   3.911483 )  

     reciprocal axes: (cart. coord. in units 2 pi/alat)
               b(1) = (  1.000000  0.000000  0.000000 )  
               b(2) = (  0.000000  1.000000  0.000000 )  
               b(3) = (  0.000000  0.000000  0.255658 )  


     PseudoPot. # 1 for Bi read from file:
     ~/q-e/pseudo/pslibrary/rel-pz/PSEUDOPOTENTIALS/Bi.rel-pz-dn-rrkjus_psl.1.0.0.UPF
     MD5 check sum: Not computed, couldn't open file
     Pseudo is Ultrasoft + core correction, Zval = 15.0
     Generated using 'atomic' code by A. Dal Corso  v.7.2
     Using radial grid of 1283 points, 10 beta functions with: 
                l(1) =   0
                l(2) =   0
                l(3) =   1
                l(4) =   1
                l(5) =   1
                l(6) =   1
                l(7) =   2
                l(8) =   2
                l(9) =   2
               l(10) =   2
     Q(r) pseudized with 0 coefficients 


     PseudoPot. # 2 for Pd read from file:
     ~/q-e/pseudo/pslibrary/rel-pz/PSEUDOPOTENTIALS/Pd.rel-pz-n-rrkjus_psl.1.0.0.UPF
     MD5 check sum: Not computed, couldn't open file
     Pseudo is Ultrasoft + core correction, Zval = 10.0
     Generated using 'atomic' code by A. Dal Corso  v.7.2
     Using radial grid of 1235 points, 10 beta functions with: 
                l(1) =   0
                l(2) =   0
                l(3) =   1
                l(4) =   1
                l(5) =   1
                l(6) =   1
                l(7) =   2
                l(8) =   2
                l(9) =   2
               l(10) =   2
     Q(r) pseudized with 0 coefficients 


     atomic species   valence    mass     pseudopotential
     Bi               15.00   208.98000     Bi( 1.00)
     Pd               10.00   106.42000     Pd( 1.00)

     16 Sym. Ops., with inversion, found


                                    s                        frac. trans.

      isym =  1     identity                                     

 cryst.   s( 1) = (     1          0          0      )
                  (     0          1          0      )
                  (     0          0          1      )

 cart.    s( 1) = (  1.0000000  0.0000000  0.0000000 )
                  (  0.0000000  1.0000000  0.0000000 )
                  (  0.0000000  0.0000000  1.0000000 )


      isym =  2     180 deg rotation - cart. axis [0,0,1]        

 cryst.   s( 2) = (    -1          0          0      )
                  (     0         -1          0      )
                  (     0          0          1      )

 cart.    s( 2) = ( -1.0000000  0.0000000  0.0000000 )
                  (  0.0000000 -1.0000000  0.0000000 )
                  (  0.0000000  0.0000000  1.0000000 )


      isym =  3     180 deg rotation - cart. axis [0,1,0]        

 cryst.   s( 3) = (    -1          0          0      )
                  (     0          1          0      )
                  (     0          0         -1      )

 cart.    s( 3) = ( -1.0000000  0.0000000  0.0000000 )
                  (  0.0000000  1.0000000  0.0000000 )
                  (  0.0000000  0.0000000 -1.0000000 )


      isym =  4     180 deg rotation - cart. axis [1,0,0]        

 cryst.   s( 4) = (     1          0          0      )
                  (     0         -1          0      )
                  (     0          0         -1      )

 cart.    s( 4) = (  1.0000000  0.0000000  0.0000000 )
                  (  0.0000000 -1.0000000  0.0000000 )
                  (  0.0000000  0.0000000 -1.0000000 )


      isym =  5     180 deg rotation - cart. axis [1,1,0]        

 cryst.   s( 5) = (     0          1          0      )
                  (     1          0          0      )
                  (     0          0         -1      )

 cart.    s( 5) = (  0.0000000  1.0000000  0.0000000 )
                  (  1.0000000  0.0000000  0.0000000 )
                  (  0.0000000  0.0000000 -1.0000000 )


      isym =  6     180 deg rotation - cart. axis [1,-1,0]       

 cryst.   s( 6) = (     0         -1          0      )
                  (    -1          0          0      )
                  (     0          0         -1      )

 cart.    s( 6) = (  0.0000000 -1.0000000  0.0000000 )
                  ( -1.0000000  0.0000000  0.0000000 )
                  (  0.0000000  0.0000000 -1.0000000 )


      isym =  7      90 deg rotation - cart. axis [0,0,-1]       

 cryst.   s( 7) = (     0         -1          0      )
                  (     1          0          0      )
                  (     0          0          1      )

 cart.    s( 7) = (  0.0000000  1.0000000  0.0000000 )
                  ( -1.0000000  0.0000000  0.0000000 )
                  (  0.0000000  0.0000000  1.0000000 )


      isym =  8      90 deg rotation - cart. axis [0,0,1]        

 cryst.   s( 8) = (     0          1          0      )
                  (    -1          0          0      )
                  (     0          0          1      )

 cart.    s( 8) = (  0.0000000 -1.0000000  0.0000000 )
                  (  1.0000000  0.0000000  0.0000000 )
                  (  0.0000000  0.0000000  1.0000000 )


      isym =  9     inversion                                    

 cryst.   s( 9) = (    -1          0          0      )
                  (     0         -1          0      )
                  (     0          0         -1      )

 cart.    s( 9) = ( -1.0000000  0.0000000  0.0000000 )
                  (  0.0000000 -1.0000000  0.0000000 )
                  (  0.0000000  0.0000000 -1.0000000 )


      isym = 10     inv. 180 deg rotation - cart. axis [0,0,1]   

 cryst.   s(10) = (     1          0          0      )
                  (     0          1          0      )
                  (     0          0         -1      )

 cart.    s(10) = (  1.0000000  0.0000000  0.0000000 )
                  (  0.0000000  1.0000000  0.0000000 )
                  (  0.0000000  0.0000000 -1.0000000 )


      isym = 11     inv. 180 deg rotation - cart. axis [0,1,0]   

 cryst.   s(11) = (     1          0          0      )
                  (     0         -1          0      )
                  (     0          0          1      )

 cart.    s(11) = (  1.0000000  0.0000000  0.0000000 )
                  (  0.0000000 -1.0000000  0.0000000 )
                  (  0.0000000  0.0000000  1.0000000 )


      isym = 12     inv. 180 deg rotation - cart. axis [1,0,0]   

 cryst.   s(12) = (    -1          0          0      )
                  (     0          1          0      )
                  (     0          0          1      )

 cart.    s(12) = ( -1.0000000  0.0000000  0.0000000 )
                  (  0.0000000  1.0000000  0.0000000 )
                  (  0.0000000  0.0000000  1.0000000 )


      isym = 13     inv. 180 deg rotation - cart. axis [1,1,0]   

 cryst.   s(13) = (     0         -1          0      )
                  (    -1          0          0      )
                  (     0          0          1      )

 cart.    s(13) = (  0.0000000 -1.0000000  0.0000000 )
                  ( -1.0000000  0.0000000  0.0000000 )
                  (  0.0000000  0.0000000  1.0000000 )


      isym = 14     inv. 180 deg rotation - cart. axis [1,-1,0]  

 cryst.   s(14) = (     0          1          0      )
                  (     1          0          0      )
                  (     0          0          1      )

 cart.    s(14) = (  0.0000000  1.0000000  0.0000000 )
                  (  1.0000000  0.0000000  0.0000000 )
                  (  0.0000000  0.0000000  1.0000000 )


      isym = 15     inv.  90 deg rotation - cart. axis [0,0,-1]  

 cryst.   s(15) = (     0          1          0      )
                  (    -1          0          0      )
                  (     0          0         -1      )

 cart.    s(15) = (  0.0000000 -1.0000000  0.0000000 )
                  (  1.0000000  0.0000000  0.0000000 )
                  (  0.0000000  0.0000000 -1.0000000 )


      isym = 16     inv.  90 deg rotation - cart. axis [0,0,1]   

 cryst.   s(16) = (     0         -1          0      )
                  (     1          0          0      )
                  (     0          0         -1      )

 cart.    s(16) = (  0.0000000  1.0000000  0.0000000 )
                  ( -1.0000000  0.0000000  0.0000000 )
                  (  0.0000000  0.0000000 -1.0000000 )


     double point group D_4h(4/mmm)
     there are 14 classes and  4 irreducible representations
     the character table:

       E     -E    2C4   -2C4   C2    2C2' 2C2'' i     -i    2S4   -2S4   s_h 
                               -C2   -2C2' -2C2'                         -s_h 
G_6+   2.00 -2.00  1.41 -1.41  0.00  0.00  0.00  2.00 -2.00  1.41 -1.41  0.00
G_7+   2.00 -2.00 -1.41  1.41  0.00  0.00  0.00  2.00 -2.00 -1.41  1.41  0.00
G_6-   2.00 -2.00  1.41 -1.41  0.00  0.00  0.00 -2.00  2.00 -1.41  1.41  0.00
G_7-   2.00 -2.00 -1.41  1.41  0.00  0.00  0.00 -2.00  2.00  1.41 -1.41  0.00

        2s_v  2s_d
       -2s_v -2s_d
G_6+   0.00  0.00
G_7+   0.00  0.00
G_6-   0.00  0.00
G_7-   0.00  0.00

     the symmetry operations in each class and the name of the first element:

     E             1
          identity                                               
     -E           -1
          identity E                                             
     2C4           7    8
           90 deg rotation - cart. axis [0,0,-1]                 
     -2C4         -7   -8
           90 deg rotation - cart. axis [0,0,-1] E               
      C2  -C2      2   -2
          180 deg rotation - cart. axis [0,0,1]                  
      2C2'-2C2'    3   -3    4   -4
          180 deg rotation - cart. axis [0,1,0]                  
     2C2''-2C2'    5   -5   -6    6
          180 deg rotation - cart. axis [1,1,0]                  
     i             9
          inversion                                              
     -i           -9
          inversion E                                            
     2S4          15   16
          inv.  90 deg rotation - cart. axis [0,0,-1]            
     -2S4        -15  -16
          inv.  90 deg rotation - cart. axis [0,0,-1] E          
      s_h -s_h    10  -10
          inv. 180 deg rotation - cart. axis [0,0,1]             
      2s_v-2s_v   11  -11   12  -12
          inv. 180 deg rotation - cart. axis [0,1,0]             
      2s_d-2s_d   13  -13  -14   14
          inv. 180 deg rotation - cart. axis [1,1,0]             

   Cartesian axes

     site n.     atom                  positions (alat units)
         1        Bi     tau(   1) = (   0.5000000   0.5000000   0.5175674  )
         2        Bi     tau(   2) = (   0.5000000   0.5000000   3.3939153  )
         3        Bi     tau(   3) = (   0.0000000   0.0000000   1.4381739  )
         4        Bi     tau(   4) = (   0.0000000   0.0000000   2.4733087  )
         5        Pd     tau(   5) = (   0.0000000   0.0000000   0.0000000  )
         6        Pd     tau(   6) = (   0.5000000   0.5000000   1.9557413  )

   Crystallographic axes

     site n.     atom                  positions (cryst. coord.)
         1        Bi     tau(   1) = (  0.5000000  0.5000000  0.1323200  )
         2        Bi     tau(   2) = (  0.5000000  0.5000000  0.8676800  )
         3        Bi     tau(   3) = (  0.0000000  0.0000000  0.3676800  )
         4        Bi     tau(   4) = (  0.0000000  0.0000000  0.6323200  )
         5        Pd     tau(   5) = (  0.0000000  0.0000000  0.0000000  )
         6        Pd     tau(   6) = (  0.5000000  0.5000000  0.5000000  )

     number of k points=    18  Methfessel-Paxton smearing, width (Ry)=  0.0100
                       cart. coord. in units 2pi/alat
        k(    1) = (   0.0000000   0.0000000   0.0000000), wk =   0.0156250
        k(    2) = (   0.0000000   0.0000000   0.0639144), wk =   0.0312500
        k(    3) = (   0.0000000   0.0000000  -0.1278288), wk =   0.0156250
        k(    4) = (   0.0000000   0.2500000   0.0000000), wk =   0.0625000
        k(    5) = (   0.0000000   0.2500000   0.0639144), wk =   0.1250000
        k(    6) = (   0.0000000   0.2500000  -0.1278288), wk =   0.0625000
        k(    7) = (   0.0000000  -0.5000000   0.0000000), wk =   0.0312500
        k(    8) = (   0.0000000  -0.5000000   0.0639144), wk =   0.0625000
        k(    9) = (   0.0000000  -0.5000000  -0.1278288), wk =   0.0312500
        k(   10) = (   0.2500000   0.2500000   0.0000000), wk =   0.0625000
        k(   11) = (   0.2500000   0.2500000   0.0639144), wk =   0.1250000
        k(   12) = (   0.2500000   0.2500000  -0.1278288), wk =   0.0625000
        k(   13) = (   0.2500000  -0.5000000   0.0000000), wk =   0.0625000
        k(   14) = (   0.2500000  -0.5000000   0.0639144), wk =   0.1250000
        k(   15) = (   0.2500000  -0.5000000  -0.1278288), wk =   0.0625000
        k(   16) = (  -0.5000000  -0.5000000   0.0000000), wk =   0.0156250
        k(   17) = (  -0.5000000  -0.5000000   0.0639144), wk =   0.0312500
        k(   18) = (  -0.5000000  -0.5000000  -0.1278288), wk =   0.0156250

                       cryst. coord.
        k(    1) = (   0.0000000   0.0000000   0.0000000), wk =   0.0156250
        k(    2) = (   0.0000000   0.0000000   0.2500000), wk =   0.0312500
        k(    3) = (   0.0000000   0.0000000  -0.5000000), wk =   0.0156250
        k(    4) = (   0.0000000   0.2500000   0.0000000), wk =   0.0625000
        k(    5) = (   0.0000000   0.2500000   0.2500000), wk =   0.1250000
        k(    6) = (   0.0000000   0.2500000  -0.5000000), wk =   0.0625000
        k(    7) = (   0.0000000  -0.5000000   0.0000000), wk =   0.0312500
        k(    8) = (   0.0000000  -0.5000000   0.2500000), wk =   0.0625000
        k(    9) = (   0.0000000  -0.5000000  -0.5000000), wk =   0.0312500
        k(   10) = (   0.2500000   0.2500000   0.0000000), wk =   0.0625000
        k(   11) = (   0.2500000   0.2500000   0.2500000), wk =   0.1250000
        k(   12) = (   0.2500000   0.2500000  -0.5000000), wk =   0.0625000
        k(   13) = (   0.2500000  -0.5000000   0.0000000), wk =   0.0625000
        k(   14) = (   0.2500000  -0.5000000   0.2500000), wk =   0.1250000
        k(   15) = (   0.2500000  -0.5000000  -0.5000000), wk =   0.0625000
        k(   16) = (  -0.5000000  -0.5000000   0.0000000), wk =   0.0156250
        k(   17) = (  -0.5000000  -0.5000000   0.2500000), wk =   0.0312500
        k(   18) = (  -0.5000000  -0.5000000  -0.5000000), wk =   0.0156250

     Dense  grid:   217317 G-vectors     FFT dimensions: (  48,  48, 192)

     Smooth grid:    64403 G-vectors     FFT dimensions: (  32,  32, 125)

     Dynamical RAM for                 wfc:       5.89 MB

     Dynamical RAM for     wfc (w. buffer):     111.94 MB

     Dynamical RAM for           str. fact:       1.66 MB

     Dynamical RAM for           local pot:       0.00 MB

     Dynamical RAM for          nlocal pot:       6.26 MB

     Dynamical RAM for                qrad:       9.76 MB

     Dynamical RAM for          rho,v,vnew:      20.07 MB

     Dynamical RAM for               rhoin:       6.69 MB

     Dynamical RAM for            rho*nmix:      53.05 MB

     Dynamical RAM for           G-vectors:       3.23 MB

     Dynamical RAM for          h,s,v(r/c):       1.69 MB

     Dynamical RAM for          <psi|beta>:       0.60 MB

     Dynamical RAM for                 psi:      11.78 MB

     Dynamical RAM for                hpsi:      11.78 MB

     Dynamical RAM for                spsi:      11.78 MB

     Dynamical RAM for      wfcinit/wfcrot:      10.21 MB

     Dynamical RAM for           addusdens:     508.97 MB

     Estimated static dynamical RAM per process >     168.85 MB

     Estimated max dynamical RAM per process >     730.87 MB

     Estimated total dynamical RAM >       2.85 GB

     Initial potential from superposition of free atoms

     starting charge      79.9965, renormalised to      80.0000
     Starting wfcs are  108 randomized atomic wfcs

     total cpu time spent up to now is        3.5 secs

     Self-consistent Calculation

     iteration #  1     ecut=    60.00 Ry     beta= 0.10
     Davidson diagonalization with overlap

---- Real-time Memory Report at c_bands before calling an iterative solver
           645 MiB given to the printing process from OS
             0 MiB allocation reported by mallinfo(arena+hblkhd)
         11711 MiB available memory on the node where the printing process lives
------------------
     ethr =  1.00E-02,  avg # of iterations =  2.9

     Threshold (ethr) on eigenvalues was too large:
     Diagonalizing with lowered threshold

     Davidson diagonalization with overlap

---- Real-time Memory Report at c_bands before calling an iterative solver
           807 MiB given to the printing process from OS
             0 MiB allocation reported by mallinfo(arena+hblkhd)
         11650 MiB available memory on the node where the printing process lives
------------------
     ethr =  1.50E-04,  avg # of iterations =  4.7

     total cpu time spent up to now is       24.2 secs

     total energy              =    -754.34427951 Ry
     estimated scf accuracy    <       0.13413641 Ry

     iteration #  2     ecut=    60.00 Ry     beta= 0.10
     Davidson diagonalization with overlap

---- Real-time Memory Report at c_bands before calling an iterative solver
           813 MiB given to the printing process from OS
             0 MiB allocation reported by mallinfo(arena+hblkhd)
         11624 MiB available memory on the node where the printing process lives
------------------
     ethr =  1.68E-04,  avg # of iterations =  1.1

     total cpu time spent up to now is       33.7 secs

     total energy              =    -754.32748804 Ry
     estimated scf accuracy    <       0.07122547 Ry

     iteration #  3     ecut=    60.00 Ry     beta= 0.10
     Davidson diagonalization with overlap

---- Real-time Memory Report at c_bands before calling an iterative solver
           816 MiB given to the printing process from OS
             0 MiB allocation reported by mallinfo(arena+hblkhd)
         11610 MiB available memory on the node where the printing process lives
------------------
     ethr =  8.90E-05,  avg # of iterations =  2.0

     total cpu time spent up to now is       44.5 secs

     total energy              =    -754.32084091 Ry
     estimated scf accuracy    <       0.02753287 Ry

     iteration #  4     ecut=    60.00 Ry     beta= 0.10
     Davidson diagonalization with overlap

---- Real-time Memory Report at c_bands before calling an iterative solver
           818 MiB given to the printing process from OS
             0 MiB allocation reported by mallinfo(arena+hblkhd)
         11599 MiB available memory on the node where the printing process lives
------------------
     ethr =  3.44E-05,  avg # of iterations =  2.1

     total cpu time spent up to now is       55.7 secs

     total energy              =    -754.32031817 Ry
     estimated scf accuracy    <       0.00683044 Ry

     iteration #  5     ecut=    60.00 Ry     beta= 0.10
     Davidson diagonalization with overlap

---- Real-time Memory Report at c_bands before calling an iterative solver
           820 MiB given to the printing process from OS
             0 MiB allocation reported by mallinfo(arena+hblkhd)
         11592 MiB available memory on the node where the printing process lives
------------------
     ethr =  8.54E-06,  avg # of iterations =  4.3

     total cpu time spent up to now is       68.3 secs

     total energy              =    -754.31887670 Ry
     estimated scf accuracy    <       0.01028656 Ry

     iteration #  6     ecut=    60.00 Ry     beta= 0.10
     Davidson diagonalization with overlap

---- Real-time Memory Report at c_bands before calling an iterative solver
           822 MiB given to the printing process from OS
             0 MiB allocation reported by mallinfo(arena+hblkhd)
         11586 MiB available memory on the node where the printing process lives
------------------
     ethr =  8.54E-06,  avg # of iterations =  2.1

     total cpu time spent up to now is       80.5 secs

     total energy              =    -754.32186983 Ry
     estimated scf accuracy    <       0.00244628 Ry

     iteration #  7     ecut=    60.00 Ry     beta= 0.10
     Davidson diagonalization with overlap

---- Real-time Memory Report at c_bands before calling an iterative solver
           824 MiB given to the printing process from OS
             0 MiB allocation reported by mallinfo(arena+hblkhd)
         11575 MiB available memory on the node where the printing process lives
------------------
     ethr =  3.06E-06,  avg # of iterations =  1.0

     total cpu time spent up to now is       90.3 secs

     total energy              =    -754.32159806 Ry
     estimated scf accuracy    <       0.00144543 Ry

     iteration #  8     ecut=    60.00 Ry     beta= 0.10
     Davidson diagonalization with overlap

---- Real-time Memory Report at c_bands before calling an iterative solver
           826 MiB given to the printing process from OS
             0 MiB allocation reported by mallinfo(arena+hblkhd)
         11570 MiB available memory on the node where the printing process lives
------------------
     ethr =  1.81E-06,  avg # of iterations =  2.0

     total cpu time spent up to now is      100.8 secs

     total energy              =    -754.32168661 Ry
     estimated scf accuracy    <       0.00021260 Ry

     iteration #  9     ecut=    60.00 Ry     beta= 0.10
     Davidson diagonalization with overlap

---- Real-time Memory Report at c_bands before calling an iterative solver
           828 MiB given to the printing process from OS
             0 MiB allocation reported by mallinfo(arena+hblkhd)
         11560 MiB available memory on the node where the printing process lives
------------------
     ethr =  2.66E-07,  avg # of iterations =  1.3

     total cpu time spent up to now is      110.9 secs

     total energy              =    -754.32167095 Ry
     estimated scf accuracy    <       0.00009474 Ry

     iteration # 10     ecut=    60.00 Ry     beta= 0.10
     Davidson diagonalization with overlap

---- Real-time Memory Report at c_bands before calling an iterative solver
           830 MiB given to the printing process from OS
             0 MiB allocation reported by mallinfo(arena+hblkhd)
         11557 MiB available memory on the node where the printing process lives
------------------
     ethr =  1.18E-07,  avg # of iterations =  2.2

     total cpu time spent up to now is      121.7 secs

     total energy              =    -754.32168175 Ry
     estimated scf accuracy    <       0.00000499 Ry

     iteration # 11     ecut=    60.00 Ry     beta= 0.10
     Davidson diagonalization with overlap

---- Real-time Memory Report at c_bands before calling an iterative solver
           830 MiB given to the printing process from OS
             0 MiB allocation reported by mallinfo(arena+hblkhd)
         11560 MiB available memory on the node where the printing process lives
------------------
     ethr =  6.23E-09,  avg # of iterations =  2.4

     total cpu time spent up to now is      132.5 secs

     total energy              =    -754.32168041 Ry
     estimated scf accuracy    <       0.00000455 Ry

     iteration # 12     ecut=    60.00 Ry     beta= 0.10
     Davidson diagonalization with overlap

---- Real-time Memory Report at c_bands before calling an iterative solver
           830 MiB given to the printing process from OS
             0 MiB allocation reported by mallinfo(arena+hblkhd)
         11557 MiB available memory on the node where the printing process lives
------------------
     ethr =  5.69E-09,  avg # of iterations =  2.2

     total cpu time spent up to now is      144.6 secs

     total energy              =    -754.32168157 Ry
     estimated scf accuracy    <       0.00000036 Ry

     iteration # 13     ecut=    60.00 Ry     beta= 0.10
     Davidson diagonalization with overlap

---- Real-time Memory Report at c_bands before calling an iterative solver
           830 MiB given to the printing process from OS
             0 MiB allocation reported by mallinfo(arena+hblkhd)
         11561 MiB available memory on the node where the printing process lives
------------------
     ethr =  4.53E-10,  avg # of iterations =  2.0

     total cpu time spent up to now is      155.4 secs

     total energy              =    -754.32168168 Ry
     estimated scf accuracy    <       0.00000018 Ry

     iteration # 14     ecut=    60.00 Ry     beta= 0.10
     Davidson diagonalization with overlap

---- Real-time Memory Report at c_bands before calling an iterative solver
           830 MiB given to the printing process from OS
             0 MiB allocation reported by mallinfo(arena+hblkhd)
         11559 MiB available memory on the node where the printing process lives
------------------
     ethr =  2.19E-10,  avg # of iterations =  2.9

     total cpu time spent up to now is      168.4 secs

     total energy              =    -754.32168150 Ry
     estimated scf accuracy    <       0.00000095 Ry

     iteration # 15     ecut=    60.00 Ry     beta= 0.10
     Davidson diagonalization with overlap

---- Real-time Memory Report at c_bands before calling an iterative solver
           832 MiB given to the printing process from OS
             0 MiB allocation reported by mallinfo(arena+hblkhd)
         11557 MiB available memory on the node where the printing process lives
------------------
     ethr =  2.19E-10,  avg # of iterations =  2.4

     total cpu time spent up to now is      181.2 secs

     total energy              =    -754.32168166 Ry
     estimated scf accuracy    <       0.00000001 Ry

     iteration # 16     ecut=    60.00 Ry     beta= 0.10
     Davidson diagonalization with overlap

---- Real-time Memory Report at c_bands before calling an iterative solver
           832 MiB given to the printing process from OS
             0 MiB allocation reported by mallinfo(arena+hblkhd)
         11560 MiB available memory on the node where the printing process lives
------------------
     ethr =  1.78E-11,  avg # of iterations =  3.1

     total cpu time spent up to now is      192.4 secs

     total energy              =    -754.32168166 Ry
     estimated scf accuracy    <       0.00000004 Ry

     iteration # 17     ecut=    60.00 Ry     beta= 0.10
     Davidson diagonalization with overlap

---- Real-time Memory Report at c_bands before calling an iterative solver
           832 MiB given to the printing process from OS
             0 MiB allocation reported by mallinfo(arena+hblkhd)
         11557 MiB available memory on the node where the printing process lives
------------------
     ethr =  1.78E-11,  avg # of iterations =  2.3

     total cpu time spent up to now is      204.8 secs

     End of self-consistent calculation

          k = 0.0000 0.0000 0.0000 (  8029 PWs)   bands (ev):

   -12.0007 -12.0007 -12.0006 -12.0006 -11.9984 -11.9984 -11.9984 -11.9984
   -11.9946 -11.9946 -11.9844 -11.9844 -11.9775 -11.9775 -11.9677 -11.9677
    -9.0566  -9.0566  -9.0560  -9.0560  -9.0549  -9.0549  -9.0543  -9.0543
    -9.0307  -9.0307  -9.0213  -9.0213  -8.9885  -8.9885  -8.9808  -8.9808
    -8.9366  -8.9366  -8.9261  -8.9261  -8.9195  -8.9195  -8.9074  -8.9074
    -0.8898  -0.8898  -0.3213  -0.3213  -0.0750  -0.0750   0.8328   0.8328
     6.2106   6.2106   7.8175   7.8175   8.4521   8.4521   8.4524   8.4524
     8.9052   8.9052   8.9791   8.9791   9.3237   9.3237   9.3434   9.3434
     9.5131   9.5131   9.7327   9.7327   9.8124   9.8124   9.8143   9.8143
    10.6259  10.6259  12.4257  12.4257  13.2455  13.2455  14.5946  14.5946
    14.7628  14.7628  15.0087  15.0087  15.4680  15.4680  15.5038  15.5038
    16.5217  16.5217  16.8058  16.8058  17.9056  17.9056  18.3896  18.3896

     occupation numbers 
     1.0000   1.0000   1.0000   1.0000   1.0000   1.0000   1.0000   1.0000
     1.0000   1.0000   1.0000   1.0000   1.0000   1.0000   1.0000   1.0000
     1.0000   1.0000   1.0000   1.0000   1.0000   1.0000   1.0000   1.0000
     1.0000   1.0000   1.0000   1.0000   1.0000   1.0000   1.0000   1.0000
     1.0000   1.0000   1.0000   1.0000   1.0000   1.0000   1.0000   1.0000
     1.0000   1.0000   1.0000   1.0000   1.0000   1.0000   1.0000   1.0000
     1.0000   1.0000   1.0000   1.0000   1.0000   1.0000   1.0000   1.0000
     1.0000   1.0000   1.0000   1.0000   1.0000   1.0000   1.0000   1.0000
     1.0000   1.0000   1.0000   1.0000   1.0000   1.0000   1.0000   1.0000
     1.0000   1.0000  -0.0004  -0.0004  -0.0000  -0.0000  -0.0000  -0.0000
    -0.0000  -0.0000  -0.0000  -0.0000  -0.0000  -0.0000  -0.0000  -0.0000
    -0.0000  -0.0000  -0.0000  -0.0000  -0.0000  -0.0000  -0.0000  -0.0000

          k = 0.0000 0.0000 0.0639 (  8030 PWs)   bands (ev):

   -12.0007 -12.0007 -12.0005 -12.0005 -11.9984 -11.9984 -11.9983 -11.9983
   -11.9936 -11.9936 -11.9871 -11.9871 -11.9751 -11.9751 -11.9686 -11.9686
    -9.0565  -9.0565  -9.0559  -9.0559  -9.0548  -9.0548  -9.0543  -9.0543
    -9.0295  -9.0295  -9.0230  -9.0230  -8.9873  -8.9873  -8.9817  -8.9817
    -8.9359  -8.9359  -8.9290  -8.9290  -8.9162  -8.9162  -8.9085  -8.9085
    -0.8452  -0.8452  -0.5080  -0.5080   0.1563   0.1563   0.7326   0.7326
     6.3933   6.3933   7.4838   7.4838   8.4521   8.4521   8.4524   8.4524
     8.9099   8.9099   8.9491   8.9491   9.3266   9.3266   9.3405   9.3405
     9.6208   9.6208   9.7272   9.7272   9.8126   9.8126   9.8140   9.8140
    10.9404  10.9404  12.2065  12.2065  13.3675  13.3675  14.3762  14.3762
    14.8341  14.8341  14.8734  14.8734  15.3225  15.3225  15.3653  15.3653
    16.7793  16.7793  17.3378  17.3378  17.7163  17.7163  18.3717  18.3717

     occupation numbers 
     1.0000   1.0000   1.0000   1.0000   1.0000   1.0000   1.0000   1.0000
     1.0000   1.0000   1.0000   1.0000   1.0000   1.0000   1.0000   1.0000
     1.0000   1.0000   1.0000   1.0000   1.0000   1.0000   1.0000   1.0000
     1.0000   1.0000   1.0000   1.0000   1.0000   1.0000   1.0000   1.0000
     1.0000   1.0000   1.0000   1.0000   1.0000   1.0000   1.0000   1.0000
     1.0000   1.0000   1.0000   1.0000   1.0000   1.0000   1.0000   1.0000
     1.0000   1.0000   1.0000   1.0000   1.0000   1.0000   1.0000   1.0000
     1.0000   1.0000   1.0000   1.0000   1.0000   1.0000   1.0000   1.0000
     1.0000   1.0000   1.0000   1.0000   1.0000   1.0000   1.0000   1.0000
     1.0000   1.0000  -0.0331  -0.0331  -0.0000  -0.0000  -0.0000  -0.0000
    -0.0000  -0.0000  -0.0000  -0.0000  -0.0000  -0.0000  -0.0000  -0.0000
    -0.0000  -0.0000  -0.0000  -0.0000  -0.0000  -0.0000  -0.0000  -0.0000

          k = 0.0000 0.0000-0.1278 (  8046 PWs)   bands (ev):

   -12.0008 -12.0008 -12.0008 -12.0008 -11.9983 -11.9983 -11.9983 -11.9983
   -11.9909 -11.9909 -11.9909 -11.9909 -11.9714 -11.9714 -11.9714 -11.9714
    -9.0564  -9.0564  -9.0564  -9.0564  -9.0546  -9.0546  -9.0546  -9.0546
    -9.0265  -9.0265  -9.0265  -9.0265  -8.9843  -8.9843  -8.9843  -8.9843
    -8.9333  -8.9333  -8.9333  -8.9333  -8.9117  -8.9117  -8.9116  -8.9116
    -0.7141  -0.7141  -0.7141  -0.7141   0.4764   0.4764   0.4764   0.4764
     6.8777   6.8777   6.8777   6.8777   8.4523   8.4523   8.4523   8.4523
     8.9237   8.9237   8.9237   8.9237   9.3335   9.3335   9.3335   9.3335
     9.7019   9.7019   9.7019   9.7019   9.8133   9.8133   9.8133   9.8133
    11.6243  11.6243  11.6243  11.6243  13.7554  13.7554  13.7554  13.7554
    15.0369  15.0369  15.0370  15.0370  15.1128  15.1128  15.1128  15.1128
    17.2694  17.2694  17.2694  17.2694  18.1215  18.1215  18.1215  18.1215

     occupation numbers 
     1.0000   1.0000   1.0000   1.0000   1.0000   1.0000   1.0000   1.0000
     1.0000   1.0000   1.0000   1.0000   1.0000   1.0000   1.0000   1.0000
     1.0000   1.0000   1.0000   1.0000   1.0000   1.0000   1.0000   1.0000
     1.0000   1.0000   1.0000   1.0000   1.0000   1.0000   1.0000   1.0000
     1.0000   1.0000   1.0000   1.0000   1.0000   1.0000   1.0000   1.0000
     1.0000   1.0000   1.0000   1.0000   1.0000   1.0000   1.0000   1.0000
     1.0000   1.0000   1.0000   1.0000   1.0000   1.0000   1.0000   1.0000
     1.0000   1.0000   1.0000   1.0000   1.0000   1.0000   1.0000   1.0000
     1.0000   1.0000   1.0000   1.0000   1.0000   1.0000   1.0000   1.0000
     1.0000   1.0000   1.0000   1.0000  -0.0000  -0.0000  -0.0000  -0.0000
    -0.0000  -0.0000  -0.0000  -0.0000  -0.0000  -0.0000  -0.0000  -0.0000
    -0.0000  -0.0000  -0.0000  -0.0000  -0.0000  -0.0000  -0.0000  -0.0000

          k = 0.0000 0.2500 0.0000 (  8042 PWs)   bands (ev):

   -11.9971 -11.9971 -11.9931 -11.9931 -11.9919 -11.9919 -11.9897 -11.9897
   -11.9765 -11.9765 -11.9731 -11.9731 -11.9689 -11.9689 -11.9639 -11.9639
    -9.0388  -9.0388  -9.0367  -9.0367  -9.0305  -9.0305  -9.0288  -9.0288
    -8.9968  -8.9968  -8.9916  -8.9916  -8.9817  -8.9817  -8.9717  -8.9717
    -8.9457  -8.9457  -8.9433  -8.9433  -8.9374  -8.9374  -8.9292  -8.9292
    -0.1630  -0.1630   0.3538   0.3538   0.5488   0.5488   1.3042   1.3042
     7.0557   7.0557   7.9681   7.9681   8.2348   8.2348   8.2836   8.2836
     8.5392   8.5392   8.7172   8.7172   9.0771   9.0771   9.1468   9.1468
     9.4767   9.4767   9.4794   9.4794   9.6338   9.6338   9.6351   9.6351
    10.6667  10.6667  11.0291  11.0291  11.1699  11.1699  11.6224  11.6224
    12.4408  12.4408  14.5582  14.5582  15.1956  15.1956  15.8866  15.8866
    16.3061  16.3061  16.5256  16.5256  17.1416  17.1416  18.6458  18.6458

     occupation numbers 
     1.0000   1.0000   1.0000   1.0000   1.0000   1.0000   1.0000   1.0000
     1.0000   1.0000   1.0000   1.0000   1.0000   1.0000   1.0000   1.0000
     1.0000   1.0000   1.0000   1.0000   1.0000   1.0000   1.0000   1.0000
     1.0000   1.0000   1.0000   1.0000   1.0000   1.0000   1.0000   1.0000
     1.0000   1.0000   1.0000   1.0000   1.0000   1.0000   1.0000   1.0000
     1.0000   1.0000   1.0000   1.0000   1.0000   1.0000   1.0000   1.0000
     1.0000   1.0000   1.0000   1.0000   1.0000   1.0000   1.0000   1.0000
     1.0000   1.0000   1.0000   1.0000   1.0000   1.0000   1.0000   1.0000
     1.0000   1.0000   1.0000   1.0000   1.0000   1.0000   1.0000   1.0000
     1.0000   1.0000   1.0000   1.0000   1.0000   1.0000   1.0000   1.0000
    -0.0002  -0.0002  -0.0000  -0.0000  -0.0000  -0.0000  -0.0000  -0.0000
    -0.0000  -0.0000  -0.0000  -0.0000  -0.0000  -0.0000  -0.0000  -0.0000

          k = 0.0000 0.2500 0.0639 (  8030 PWs)   bands (ev):

   -11.9965 -11.9965 -11.9939 -11.9939 -11.9913 -11.9913 -11.9899 -11.9899
   -11.9760 -11.9760 -11.9739 -11.9739 -11.9678 -11.9678 -11.9645 -11.9645
    -9.0383  -9.0383  -9.0369  -9.0369  -9.0303  -9.0303  -9.0290  -9.0290
    -8.9961  -8.9961  -8.9927  -8.9927  -8.9802  -8.9802  -8.9734  -8.9734
    -8.9451  -8.9451  -8.9429  -8.9429  -8.9364  -8.9364  -8.9304  -8.9304
    -0.1224  -0.1224   0.1824   0.1824   0.7526   0.7526   1.2259   1.2259
     7.1742   7.1742   7.8169   7.8169   8.2048   8.2048   8.2646   8.2646
     8.6134   8.6134   8.7120   8.7120   9.0936   9.0936   9.1426   9.1426
     9.4753   9.4753   9.4767   9.4767   9.6489   9.6489   9.6519   9.6519
    10.5793  10.5793  10.8497  10.8497  11.2227  11.2227  11.7501  11.7501
    12.7353  12.7353  14.2584  14.2584  15.2628  15.2628  15.7794  15.7794
    16.4148  16.4148  16.4273  16.4273  17.1706  17.1706  18.2457  18.2457

     occupation numbers 
     1.0000   1.0000   1.0000   1.0000   1.0000   1.0000   1.0000   1.0000
     1.0000   1.0000   1.0000   1.0000   1.0000   1.0000   1.0000   1.0000
     1.0000   1.0000   1.0000   1.0000   1.0000   1.0000   1.0000   1.0000
     1.0000   1.0000   1.0000   1.0000   1.0000   1.0000   1.0000   1.0000
     1.0000   1.0000   1.0000   1.0000   1.0000   1.0000   1.0000   1.0000
     1.0000   1.0000   1.0000   1.0000   1.0000   1.0000   1.0000   1.0000
     1.0000   1.0000   1.0000   1.0000   1.0000   1.0000   1.0000   1.0000
     1.0000   1.0000   1.0000   1.0000   1.0000   1.0000   1.0000   1.0000
     1.0000   1.0000   1.0000   1.0000   1.0000   1.0000   1.0000   1.0000
     1.0000   1.0000   1.0000   1.0000   1.0000   1.0000   1.0034   1.0034
    -0.0000  -0.0000  -0.0000  -0.0000  -0.0000  -0.0000  -0.0000  -0.0000
    -0.0000  -0.0000  -0.0000  -0.0000  -0.0000  -0.0000  -0.0000  -0.0000

          k = 0.0000 0.2500-0.1278 (  8024 PWs)   bands (ev):

   -11.9953 -11.9953 -11.9953 -11.9953 -11.9904 -11.9904 -11.9904 -11.9904
   -11.9751 -11.9751 -11.9751 -11.9751 -11.9659 -11.9659 -11.9659 -11.9659
    -9.0375  -9.0375  -9.0375  -9.0375  -9.0296  -9.0296  -9.0296  -9.0296
    -8.9946  -8.9946  -8.9946  -8.9946  -8.9769  -8.9769  -8.9769  -8.9769
    -8.9436  -8.9436  -8.9436  -8.9436  -8.9334  -8.9334  -8.9334  -8.9334
    -0.0035  -0.0035  -0.0035  -0.0035   1.0201   1.0201   1.0201   1.0201
     7.4766   7.4766   7.4766   7.4766   8.2247   8.2247   8.2247   8.2247
     8.6851   8.6851   8.6851   8.6851   9.1244   9.1244   9.1244   9.1244
     9.4741   9.4741   9.4741   9.4741   9.6675   9.6675   9.6675   9.6675
    10.5887  10.5887  10.5887  10.5887  11.5433  11.5433  11.5433  11.5433
    13.5172  13.5172  13.5172  13.5172  15.4705  15.4705  15.4705  15.4705
    16.4834  16.4834  16.4834  16.4834  17.5272  17.5272  17.5272  17.5272

     occupation numbers 
     1.0000   1.0000   1.0000   1.0000   1.0000   1.0000   1.0000   1.0000
     1.0000   1.0000   1.0000   1.0000   1.0000   1.0000   1.0000   1.0000
     1.0000   1.0000   1.0000   1.0000   1.0000   1.0000   1.0000   1.0000
     1.0000   1.0000   1.0000   1.0000   1.0000   1.0000   1.0000   1.0000
     1.0000   1.0000   1.0000   1.0000   1.0000   1.0000   1.0000   1.0000
     1.0000   1.0000   1.0000   1.0000   1.0000   1.0000   1.0000   1.0000
     1.0000   1.0000   1.0000   1.0000   1.0000   1.0000   1.0000   1.0000
     1.0000   1.0000   1.0000   1.0000   1.0000   1.0000   1.0000   1.0000
     1.0000   1.0000   1.0000   1.0000   1.0000   1.0000   1.0000   1.0000
     1.0000   1.0000   1.0000   1.0000   1.0000   1.0000   1.0000   1.0000
    -0.0000  -0.0000  -0.0000  -0.0000  -0.0000  -0.0000  -0.0000  -0.0000
    -0.0000  -0.0000  -0.0000  -0.0000  -0.0000  -0.0000  -0.0000  -0.0000

          k = 0.0000-0.5000 0.0000 (  8056 PWs)   bands (ev):

   -11.9961 -11.9961 -11.9960 -11.9960 -11.9910 -11.9910 -11.9910 -11.9910
   -11.9563 -11.9563 -11.9563 -11.9563 -11.9548 -11.9548 -11.9548 -11.9548
    -9.0394  -9.0394  -9.0394  -9.0394  -9.0234  -9.0234  -9.0234  -9.0234
    -8.9930  -8.9930  -8.9930  -8.9930  -8.9646  -8.9646  -8.9646  -8.9646
    -8.9314  -8.9314  -8.9314  -8.9314  -8.9074  -8.9074  -8.9074  -8.9074
     1.1756   1.1756   1.1756   1.1756   1.6945   1.6945   1.6945   1.6945
     6.2179   6.2179   6.2179   6.2179   7.6524   7.6524   7.6524   7.6524
     8.6976   8.6976   8.6976   8.6976   9.0009   9.0009   9.0009   9.0009
     9.2521   9.2521   9.2521   9.2521   9.6246   9.6246   9.6246   9.6246
     9.8299   9.8299   9.8299   9.8299  10.7142  10.7142  10.7142  10.7142
    13.7636  13.7636  13.7636  13.7636  15.4194  15.4194  15.4194  15.4194
    16.7541  16.7541  16.7542  16.7542  17.1384  17.1384  17.1384  17.1384

     occupation numbers 
     1.0000   1.0000   1.0000   1.0000   1.0000   1.0000   1.0000   1.0000
     1.0000   1.0000   1.0000   1.0000   1.0000   1.0000   1.0000   1.0000
     1.0000   1.0000   1.0000   1.0000   1.0000   1.0000   1.0000   1.0000
     1.0000   1.0000   1.0000   1.0000   1.0000   1.0000   1.0000   1.0000
     1.0000   1.0000   1.0000   1.0000   1.0000   1.0000   1.0000   1.0000
     1.0000   1.0000   1.0000   1.0000   1.0000   1.0000   1.0000   1.0000
     1.0000   1.0000   1.0000   1.0000   1.0000   1.0000   1.0000   1.0000
     1.0000   1.0000   1.0000   1.0000   1.0000   1.0000   1.0000   1.0000
     1.0000   1.0000   1.0000   1.0000   1.0000   1.0000   1.0000   1.0000
     1.0000   1.0000   1.0000   1.0000   1.0000   1.0000   1.0000   1.0000
    -0.0000  -0.0000  -0.0000  -0.0000  -0.0000  -0.0000  -0.0000  -0.0000
    -0.0000  -0.0000  -0.0000  -0.0000  -0.0000  -0.0000  -0.0000  -0.0000

          k = 0.0000-0.5000 0.0639 (  8072 PWs)   bands (ev):

   -11.9962 -11.9962 -11.9962 -11.9962 -11.9911 -11.9911 -11.9911 -11.9911
   -11.9564 -11.9564 -11.9564 -11.9564 -11.9548 -11.9548 -11.9548 -11.9548
    -9.0394  -9.0394  -9.0394  -9.0394  -9.0236  -9.0236  -9.0236  -9.0236
    -8.9930  -8.9930  -8.9930  -8.9930  -8.9648  -8.9648  -8.9647  -8.9647
    -8.9313  -8.9313  -8.9313  -8.9313  -8.9075  -8.9075  -8.9075  -8.9075
     1.1760   1.1760   1.1760   1.1760   1.6939   1.6939   1.6939   1.6939
     6.2326   6.2326   6.2326   6.2326   7.6119   7.6119   7.6119   7.6119
     8.6939   8.6939   8.6939   8.6939   8.9712   8.9712   8.9712   8.9712
     9.2610   9.2610   9.2611   9.2611   9.6204   9.6204   9.6204   9.6204
     9.9662   9.9662   9.9662   9.9662  10.6763  10.6763  10.6763  10.6763
    13.5087  13.5087  13.5087  13.5087  15.7718  15.7718  15.7718  15.7718
    16.7389  16.7389  16.7389  16.7389  17.2889  17.2889  17.2889  17.2889

     occupation numbers 
     1.0000   1.0000   1.0000   1.0000   1.0000   1.0000   1.0000   1.0000
     1.0000   1.0000   1.0000   1.0000   1.0000   1.0000   1.0000   1.0000
     1.0000   1.0000   1.0000   1.0000   1.0000   1.0000   1.0000   1.0000
     1.0000   1.0000   1.0000   1.0000   1.0000   1.0000   1.0000   1.0000
     1.0000   1.0000   1.0000   1.0000   1.0000   1.0000   1.0000   1.0000
     1.0000   1.0000   1.0000   1.0000   1.0000   1.0000   1.0000   1.0000
     1.0000   1.0000   1.0000   1.0000   1.0000   1.0000   1.0000   1.0000
     1.0000   1.0000   1.0000   1.0000   1.0000   1.0000   1.0000   1.0000
     1.0000   1.0000   1.0000   1.0000   1.0000   1.0000   1.0000   1.0000
     1.0000   1.0000   1.0000   1.0000   1.0000   1.0000   1.0000   1.0000
    -0.0000  -0.0000  -0.0000  -0.0000  -0.0000  -0.0000  -0.0000  -0.0000
    -0.0000  -0.0000  -0.0000  -0.0000  -0.0000  -0.0000  -0.0000  -0.0000

          k = 0.0000-0.5000-0.1278 (  8088 PWs)   bands (ev):

   -11.9963 -11.9963 -11.9963 -11.9963 -11.9911 -11.9911 -11.9911 -11.9911
   -11.9564 -11.9564 -11.9564 -11.9564 -11.9549 -11.9549 -11.9549 -11.9549
    -9.0393  -9.0393  -9.0393  -9.0393  -9.0238  -9.0238  -9.0238  -9.0238
    -8.9930  -8.9930  -8.9930  -8.9930  -8.9649  -8.9649  -8.9649  -8.9649
    -8.9312  -8.9312  -8.9312  -8.9312  -8.9077  -8.9077  -8.9077  -8.9077
     1.1763   1.1763   1.1763   1.1763   1.6932   1.6932   1.6932   1.6932
     6.2479   6.2479   6.2480   6.2480   7.5716   7.5716   7.5716   7.5716
     8.6904   8.6904   8.6904   8.6904   8.9494   8.9494   8.9494   8.9494
     9.2664   9.2664   9.2664   9.2664   9.6185   9.6185   9.6185   9.6185
    10.1176  10.1176  10.1176  10.1176  10.6178  10.6178  10.6178  10.6178
    13.3037  13.3037  13.3037  13.3037  16.0729  16.0729  16.0729  16.0729
    16.7205  16.7205  16.7205  16.7205  17.6922  17.6922  17.6922  17.6922

     occupation numbers 
     1.0000   1.0000   1.0000   1.0000   1.0000   1.0000   1.0000   1.0000
     1.0000   1.0000   1.0000   1.0000   1.0000   1.0000   1.0000   1.0000
     1.0000   1.0000   1.0000   1.0000   1.0000   1.0000   1.0000   1.0000
     1.0000   1.0000   1.0000   1.0000   1.0000   1.0000   1.0000   1.0000
     1.0000   1.0000   1.0000   1.0000   1.0000   1.0000   1.0000   1.0000
     1.0000   1.0000   1.0000   1.0000   1.0000   1.0000   1.0000   1.0000
     1.0000   1.0000   1.0000   1.0000   1.0000   1.0000   1.0000   1.0000
     1.0000   1.0000   1.0000   1.0000   1.0000   1.0000   1.0000   1.0000
     1.0000   1.0000   1.0000   1.0000   1.0000   1.0000   1.0000   1.0000
     1.0000   1.0000   1.0000   1.0000   1.0000   1.0000   1.0000   1.0000
    -0.0000  -0.0000  -0.0000  -0.0000  -0.0000  -0.0000  -0.0000  -0.0000
    -0.0000  -0.0000  -0.0000  -0.0000  -0.0000  -0.0000  -0.0000  -0.0000

          k = 0.2500 0.2500 0.0000 (  8043 PWs)   bands (ev):

   -11.9864 -11.9864 -11.9806 -11.9806 -11.9749 -11.9749 -11.9724 -11.9724
   -11.9720 -11.9720 -11.9696 -11.9696 -11.9675 -11.9675 -11.9667 -11.9667
    -9.0064  -9.0064  -9.0041  -9.0041  -8.9931  -8.9931  -8.9870  -8.9870
    -8.9771  -8.9771  -8.9765  -8.9765  -8.9742  -8.9742  -8.9725  -8.9725
    -8.9682  -8.9682  -8.9659  -8.9659  -8.9526  -8.9526  -8.9516  -8.9516
     0.5121   0.5121   0.9620   0.9620   1.1887   1.1887   1.8363   1.8363
     7.4685   7.4685   8.2707   8.2707   8.2845   8.2845   8.3681   8.3681
     8.6304   8.6304   8.7421   8.7421   8.8668   8.8668   8.8917   8.8917
     9.2060   9.2060   9.4833   9.4833   9.5535   9.5535   9.6135   9.6135
    10.9731  10.9731  11.0338  11.0338  11.4015  11.4015  11.4306  11.4306
    12.1621  12.1621  12.6414  12.6414  12.7676  12.7676  13.2005  13.2005
    14.1406  14.1406  15.3469  15.3469  16.9129  16.9129  17.9206  18.0981

     occupation numbers 
     1.0000   1.0000   1.0000   1.0000   1.0000   1.0000   1.0000   1.0000
     1.0000   1.0000   1.0000   1.0000   1.0000   1.0000   1.0000   1.0000
     1.0000   1.0000   1.0000   1.0000   1.0000   1.0000   1.0000   1.0000
     1.0000   1.0000   1.0000   1.0000   1.0000   1.0000   1.0000   1.0000
     1.0000   1.0000   1.0000   1.0000   1.0000   1.0000   1.0000   1.0000
     1.0000   1.0000   1.0000   1.0000   1.0000   1.0000   1.0000   1.0000
     1.0000   1.0000   1.0000   1.0000   1.0000   1.0000   1.0000   1.0000
     1.0000   1.0000   1.0000   1.0000   1.0000   1.0000   1.0000   1.0000
     1.0000   1.0000   1.0000   1.0000   1.0000   1.0000   1.0000   1.0000
     1.0000   1.0000   1.0000   1.0000   1.0000   1.0000   1.0000   1.0000
     0.0139   0.0139  -0.0000  -0.0000  -0.0000  -0.0000  -0.0000  -0.0000
    -0.0000  -0.0000  -0.0000  -0.0000  -0.0000  -0.0000  -0.0000  -0.0000

          k = 0.2500 0.2500 0.0639 (  8047 PWs)   bands (ev):

   -11.9858 -11.9858 -11.9820 -11.9820 -11.9742 -11.9742 -11.9725 -11.9725
   -11.9715 -11.9715 -11.9695 -11.9695 -11.9676 -11.9676 -11.9673 -11.9673
    -9.0059  -9.0059  -9.0042  -9.0042  -8.9926  -8.9926  -8.9885  -8.9885
    -8.9777  -8.9777  -8.9773  -8.9773  -8.9739  -8.9739  -8.9727  -8.9727
    -8.9665  -8.9665  -8.9647  -8.9647  -8.9530  -8.9530  -8.9523  -8.9523
     0.5490   0.5490   0.8220   0.8220   1.3558   1.3558   1.7684   1.7684
     7.5736   7.5736   8.1399   8.1399   8.2959   8.2959   8.3549   8.3549
     8.6410   8.6410   8.7244   8.7244   8.8515   8.8515   8.8806   8.8806
     9.2605   9.2605   9.4397   9.4397   9.5662   9.5662   9.6067   9.6067
    11.0342  11.0342  11.1648  11.1648  11.3406  11.3406  11.4594  11.4594
    12.0443  12.0443  12.3138  12.3138  12.9989  12.9989  13.4909  13.4909
    14.0901  14.0901  15.0585  15.0585  17.1054  17.1054  17.9830  17.9830

     occupation numbers 
     1.0000   1.0000   1.0000   1.0000   1.0000   1.0000   1.0000   1.0000
     1.0000   1.0000   1.0000   1.0000   1.0000   1.0000   1.0000   1.0000
     1.0000   1.0000   1.0000   1.0000   1.0000   1.0000   1.0000   1.0000
     1.0000   1.0000   1.0000   1.0000   1.0000   1.0000   1.0000   1.0000
     1.0000   1.0000   1.0000   1.0000   1.0000   1.0000   1.0000   1.0000
     1.0000   1.0000   1.0000   1.0000   1.0000   1.0000   1.0000   1.0000
     1.0000   1.0000   1.0000   1.0000   1.0000   1.0000   1.0000   1.0000
     1.0000   1.0000   1.0000   1.0000   1.0000   1.0000   1.0000   1.0000
     1.0000   1.0000   1.0000   1.0000   1.0000   1.0000   1.0000   1.0000
     1.0000   1.0000   1.0000   1.0000   1.0000   1.0000   1.0000   1.0000
     0.5682   0.5682  -0.0109  -0.0109  -0.0000  -0.0000  -0.0000  -0.0000
    -0.0000  -0.0000  -0.0000  -0.0000  -0.0000  -0.0000  -0.0000  -0.0000

          k = 0.2500 0.2500-0.1278 (  8064 PWs)   bands (ev):

   -11.9843 -11.9843 -11.9843 -11.9843 -11.9734 -11.9734 -11.9734 -11.9734
   -11.9700 -11.9700 -11.9699 -11.9699 -11.9678 -11.9678 -11.9678 -11.9678
    -9.0049  -9.0049  -9.0049  -9.0049  -8.9911  -8.9911  -8.9911  -8.9911
    -8.9781  -8.9781  -8.9781  -8.9781  -8.9733  -8.9733  -8.9733  -8.9733
    -8.9643  -8.9643  -8.9643  -8.9643  -8.9534  -8.9534  -8.9534  -8.9534
     0.6566   0.6566   0.6566   0.6566   1.5891   1.5891   1.5892   1.5892
     7.8424   7.8424   7.8424   7.8424   8.3247   8.3247   8.3247   8.3247
     8.6802   8.6802   8.6802   8.6802   8.8584   8.8584   8.8584   8.8584
     9.3513   9.3513   9.3513   9.3513   9.5895   9.5895   9.5895   9.5895
    11.1814  11.1814  11.1814  11.1814  11.4181  11.4181  11.4181  11.4181
    11.9998  11.9998  11.9998  11.9998  13.3902  13.3902  13.3902  13.3902
    14.4613  14.4613  14.4613  14.4613  17.5701  17.5701  17.5701  17.5701

     occupation numbers 
     1.0000   1.0000   1.0000   1.0000   1.0000   1.0000   1.0000   1.0000
     1.0000   1.0000   1.0000   1.0000   1.0000   1.0000   1.0000   1.0000
     1.0000   1.0000   1.0000   1.0000   1.0000   1.0000   1.0000   1.0000
     1.0000   1.0000   1.0000   1.0000   1.0000   1.0000   1.0000   1.0000
     1.0000   1.0000   1.0000   1.0000   1.0000   1.0000   1.0000   1.0000
     1.0000   1.0000   1.0000   1.0000   1.0000   1.0000   1.0000   1.0000
     1.0000   1.0000   1.0000   1.0000   1.0000   1.0000   1.0000   1.0000
     1.0000   1.0000   1.0000   1.0000   1.0000   1.0000   1.0000   1.0000
     1.0000   1.0000   1.0000   1.0000   1.0000   1.0000   1.0000   1.0000
     1.0000   1.0000   1.0000   1.0000   1.0000   1.0000   1.0000   1.0000
     0.8153   0.8153   0.8153   0.8153  -0.0000  -0.0000  -0.0000  -0.0000
    -0.0000  -0.0000  -0.0000  -0.0000  -0.0000  -0.0000  -0.0000  -0.0000

          k = 0.2500-0.5000 0.0000 (  8072 PWs)   bands (ev):

   -11.9847 -11.9847 -11.9847 -11.9847 -11.9738 -11.9738 -11.9738 -11.9738
   -11.9556 -11.9556 -11.9556 -11.9556 -11.9546 -11.9546 -11.9546 -11.9546
    -9.0170  -9.0170  -9.0170  -9.0170  -9.0073  -9.0073  -9.0073  -9.0073
    -8.9814  -8.9814  -8.9814  -8.9814  -8.9650  -8.9650  -8.9650  -8.9650
    -8.9241  -8.9241  -8.9241  -8.9241  -8.9116  -8.9116  -8.9115  -8.9115
     1.6899   1.6899   1.6899   1.6899   2.3683   2.3683   2.3683   2.3683
     7.0107   7.0107   7.0107   7.0107   7.5208   7.5208   7.5208   7.5208
     8.3730   8.3730   8.3730   8.3730   8.7871   8.7871   8.7871   8.7871
     9.3192   9.3192   9.3192   9.3192  10.3278  10.3278  10.3278  10.3278
    10.4919  10.4919  10.4919  10.4919  10.9279  10.9279  10.9279  10.9279
    12.5769  12.5769  12.5769  12.5769  13.5272  13.5272  13.5272  13.5272
    14.6651  14.6651  14.6651  14.6651  15.6119  15.6119  15.6119  15.6119

     occupation numbers 
     1.0000   1.0000   1.0000   1.0000   1.0000   1.0000   1.0000   1.0000
     1.0000   1.0000   1.0000   1.0000   1.0000   1.0000   1.0000   1.0000
     1.0000   1.0000   1.0000   1.0000   1.0000   1.0000   1.0000   1.0000
     1.0000   1.0000   1.0000   1.0000   1.0000   1.0000   1.0000   1.0000
     1.0000   1.0000   1.0000   1.0000   1.0000   1.0000   1.0000   1.0000
     1.0000   1.0000   1.0000   1.0000   1.0000   1.0000   1.0000   1.0000
     1.0000   1.0000   1.0000   1.0000   1.0000   1.0000   1.0000   1.0000
     1.0000   1.0000   1.0000   1.0000   1.0000   1.0000   1.0000   1.0000
     1.0000   1.0000   1.0000   1.0000   1.0000   1.0000   1.0000   1.0000
     1.0000   1.0000   1.0000   1.0000   1.0000   1.0000   1.0000   1.0000
    -0.0000  -0.0000  -0.0000  -0.0000  -0.0000  -0.0000  -0.0000  -0.0000
    -0.0000  -0.0000  -0.0000  -0.0000  -0.0000  -0.0000  -0.0000  -0.0000

          k = 0.2500-0.5000 0.0639 (  8062 PWs)   bands (ev):

   -11.9847 -11.9847 -11.9847 -11.9847 -11.9738 -11.9738 -11.9738 -11.9738
   -11.9555 -11.9555 -11.9555 -11.9555 -11.9546 -11.9546 -11.9546 -11.9546
    -9.0166  -9.0166  -9.0166  -9.0166  -9.0079  -9.0079  -9.0079  -9.0079
    -8.9807  -8.9807  -8.9807  -8.9807  -8.9654  -8.9654  -8.9654  -8.9654
    -8.9243  -8.9243  -8.9243  -8.9243  -8.9113  -8.9113  -8.9113  -8.9113
     1.6901   1.6901   1.6901   1.6901   2.3680   2.3680   2.3680   2.3680
     7.0406   7.0406   7.0407   7.0407   7.4764   7.4764   7.4764   7.4764
     8.3806   8.3806   8.3807   8.3807   8.7880   8.7880   8.7880   8.7880
     9.3214   9.3214   9.3214   9.3214  10.2649  10.2649  10.2649  10.2649
    10.5284  10.5284  10.5284  10.5284  11.0079  11.0079  11.0079  11.0079
    12.5324  12.5324  12.5324  12.5324  13.5259  13.5259  13.5259  13.5259
    14.5379  14.5379  14.5379  14.5379  15.7112  15.7112  15.7112  15.7112

     occupation numbers 
     1.0000   1.0000   1.0000   1.0000   1.0000   1.0000   1.0000   1.0000
     1.0000   1.0000   1.0000   1.0000   1.0000   1.0000   1.0000   1.0000
     1.0000   1.0000   1.0000   1.0000   1.0000   1.0000   1.0000   1.0000
     1.0000   1.0000   1.0000   1.0000   1.0000   1.0000   1.0000   1.0000
     1.0000   1.0000   1.0000   1.0000   1.0000   1.0000   1.0000   1.0000
     1.0000   1.0000   1.0000   1.0000   1.0000   1.0000   1.0000   1.0000
     1.0000   1.0000   1.0000   1.0000   1.0000   1.0000   1.0000   1.0000
     1.0000   1.0000   1.0000   1.0000   1.0000   1.0000   1.0000   1.0000
     1.0000   1.0000   1.0000   1.0000   1.0000   1.0000   1.0000   1.0000
     1.0000   1.0000   1.0000   1.0000   1.0000   1.0000   1.0000   1.0000
    -0.0000  -0.0000  -0.0000  -0.0000  -0.0000  -0.0000  -0.0000  -0.0000
    -0.0000  -0.0000  -0.0000  -0.0000  -0.0000  -0.0000  -0.0000  -0.0000

          k = 0.2500-0.5000-0.1278 (  8068 PWs)   bands (ev):

   -11.9847 -11.9847 -11.9847 -11.9847 -11.9738 -11.9738 -11.9738 -11.9738
   -11.9555 -11.9555 -11.9555 -11.9555 -11.9547 -11.9547 -11.9547 -11.9547
    -9.0162  -9.0162  -9.0162  -9.0162  -9.0087  -9.0087  -9.0087  -9.0087
    -8.9800  -8.9800  -8.9800  -8.9800  -8.9657  -8.9657  -8.9657  -8.9657
    -8.9246  -8.9246  -8.9246  -8.9246  -8.9112  -8.9112  -8.9112  -8.9112
     1.6902   1.6902   1.6902   1.6902   2.3676   2.3676   2.3676   2.3676
     7.0773   7.0773   7.0773   7.0773   7.4258   7.4258   7.4258   7.4258
     8.3878   8.3878   8.3878   8.3878   8.7888   8.7888   8.7889   8.7889
     9.3237   9.3237   9.3237   9.3237  10.2221  10.2221  10.2221  10.2221
    10.5461  10.5461  10.5461  10.5461  11.0916  11.0916  11.0916  11.0916
    12.4819  12.4819  12.4819  12.4819  13.5246  13.5246  13.5246  13.5246
    14.4345  14.4345  14.4345  14.4345  15.7884  15.7884  15.7885  15.7885

     occupation numbers 
     1.0000   1.0000   1.0000   1.0000   1.0000   1.0000   1.0000   1.0000
     1.0000   1.0000   1.0000   1.0000   1.0000   1.0000   1.0000   1.0000
     1.0000   1.0000   1.0000   1.0000   1.0000   1.0000   1.0000   1.0000
     1.0000   1.0000   1.0000   1.0000   1.0000   1.0000   1.0000   1.0000
     1.0000   1.0000   1.0000   1.0000   1.0000   1.0000   1.0000   1.0000
     1.0000   1.0000   1.0000   1.0000   1.0000   1.0000   1.0000   1.0000
     1.0000   1.0000   1.0000   1.0000   1.0000   1.0000   1.0000   1.0000
     1.0000   1.0000   1.0000   1.0000   1.0000   1.0000   1.0000   1.0000
     1.0000   1.0000   1.0000   1.0000   1.0000   1.0000   1.0000   1.0000
     1.0000   1.0000   1.0000   1.0000   1.0000   1.0000   1.0000   1.0000
    -0.0000  -0.0000  -0.0000  -0.0000  -0.0000  -0.0000  -0.0000  -0.0000
    -0.0000  -0.0000  -0.0000  -0.0000  -0.0000  -0.0000  -0.0000  -0.0000

          k =-0.5000-0.5000 0.0000 (  8040 PWs)   bands (ev):

   -11.9805 -11.9805 -11.9805 -11.9805 -11.9663 -11.9663 -11.9663 -11.9663
   -11.9489 -11.9489 -11.9489 -11.9489 -11.9480 -11.9480 -11.9480 -11.9480
    -9.0364  -9.0364  -9.0364  -9.0364  -9.0221  -9.0221  -9.0221  -9.0221
    -8.9802  -8.9802  -8.9802  -8.9802  -8.9332  -8.9332  -8.9332  -8.9332
    -8.8865  -8.8865  -8.8865  -8.8865  -8.8860  -8.8860  -8.8860  -8.8860
     2.4051   2.4051   2.4051   2.4051   3.4854   3.4854   3.4854   3.4854
     7.0744   7.0744   7.0744   7.0744   7.7312   7.7312   7.7312   7.7312
     7.9796   7.9796   7.9796   7.9796   8.5329   8.5329   8.5329   8.5329
     9.3800   9.3800   9.3801   9.3801   9.5260   9.5260   9.5260   9.5260
    10.3946  10.3946  10.3946  10.3946  11.4866  11.4866  11.4866  11.4866
    12.7701  12.7701  12.7701  12.7701  13.6219  13.6219  13.6219  13.6219
    13.7527  13.7527  13.7527  13.7527  14.3973  14.3973  14.3973  14.3973

     occupation numbers 
     1.0000   1.0000   1.0000   1.0000   1.0000   1.0000   1.0000   1.0000
     1.0000   1.0000   1.0000   1.0000   1.0000   1.0000   1.0000   1.0000
     1.0000   1.0000   1.0000   1.0000   1.0000   1.0000   1.0000   1.0000
     1.0000   1.0000   1.0000   1.0000   1.0000   1.0000   1.0000   1.0000
     1.0000   1.0000   1.0000   1.0000   1.0000   1.0000   1.0000   1.0000
     1.0000   1.0000   1.0000   1.0000   1.0000   1.0000   1.0000   1.0000
     1.0000   1.0000   1.0000   1.0000   1.0000   1.0000   1.0000   1.0000
     1.0000   1.0000   1.0000   1.0000   1.0000   1.0000   1.0000   1.0000
     1.0000   1.0000   1.0000   1.0000   1.0000   1.0000   1.0000   1.0000
     1.0000   1.0000   1.0000   1.0000   1.0000   1.0000   1.0000   1.0000
    -0.0000  -0.0000  -0.0000  -0.0000  -0.0000  -0.0000  -0.0000  -0.0000
    -0.0000  -0.0000  -0.0000  -0.0000  -0.0000  -0.0000  -0.0000  -0.0000

          k =-0.5000-0.5000 0.0639 (  8020 PWs)   bands (ev):

   -11.9803 -11.9803 -11.9803 -11.9803 -11.9662 -11.9662 -11.9662 -11.9662
   -11.9489 -11.9489 -11.9489 -11.9489 -11.9480 -11.9480 -11.9480 -11.9480
    -9.0364  -9.0364  -9.0364  -9.0364  -9.0220  -9.0220  -9.0220  -9.0220
    -8.9799  -8.9799  -8.9799  -8.9799  -8.9331  -8.9331  -8.9331  -8.9331
    -8.8873  -8.8873  -8.8873  -8.8873  -8.8851  -8.8851  -8.8851  -8.8851
     2.4051   2.4051   2.4051   2.4051   3.4853   3.4853   3.4853   3.4853
     7.0808   7.0808   7.0808   7.0808   7.6706   7.6706   7.6706   7.6706
     8.0581   8.0581   8.0581   8.0581   8.5364   8.5364   8.5364   8.5364
     9.3283   9.3283   9.3283   9.3283   9.5205   9.5205   9.5205   9.5205
    10.3950  10.3950  10.3950  10.3950  11.5979  11.5979  11.5979  11.5979
    12.6575  12.6575  12.6575  12.6575  13.5960  13.5960  13.5960  13.5960
    13.6962  13.6962  13.6962  13.6962  14.5299  14.5299  14.5299  14.5299

     occupation numbers 
     1.0000   1.0000   1.0000   1.0000   1.0000   1.0000   1.0000   1.0000
     1.0000   1.0000   1.0000   1.0000   1.0000   1.0000   1.0000   1.0000
     1.0000   1.0000   1.0000   1.0000   1.0000   1.0000   1.0000   1.0000
     1.0000   1.0000   1.0000   1.0000   1.0000   1.0000   1.0000   1.0000
     1.0000   1.0000   1.0000   1.0000   1.0000   1.0000   1.0000   1.0000
     1.0000   1.0000   1.0000   1.0000   1.0000   1.0000   1.0000   1.0000
     1.0000   1.0000   1.0000   1.0000   1.0000   1.0000   1.0000   1.0000
     1.0000   1.0000   1.0000   1.0000   1.0000   1.0000   1.0000   1.0000
     1.0000   1.0000   1.0000   1.0000   1.0000   1.0000   1.0000   1.0000
     1.0000   1.0000   1.0000   1.0000   1.0000   1.0000   1.0000   1.0000
    -0.0000  -0.0000  -0.0000  -0.0000  -0.0000  -0.0000  -0.0000  -0.0000
    -0.0000  -0.0000  -0.0000  -0.0000  -0.0000  -0.0000  -0.0000  -0.0000

          k =-0.5000-0.5000-0.1278 (  8000 PWs)   bands (ev):

   -11.9804 -11.9804 -11.9804 -11.9804 -11.9660 -11.9660 -11.9660 -11.9660
   -11.9485 -11.9485 -11.9485 -11.9485 -11.9481 -11.9481 -11.9481 -11.9481
    -9.0361  -9.0361  -9.0361  -9.0361  -9.0219  -9.0219  -9.0219  -9.0219
    -8.9799  -8.9799  -8.9799  -8.9799  -8.9332  -8.9332  -8.9332  -8.9332
    -8.8874  -8.8874  -8.8874  -8.8874  -8.8848  -8.8848  -8.8848  -8.8848
     2.4051   2.4051   2.4051   2.4051   3.4852   3.4852   3.4852   3.4852
     7.0875   7.0875   7.0875   7.0875   7.6263   7.6263   7.6263   7.6263
     8.1220   8.1220   8.1220   8.1220   8.5398   8.5398   8.5398   8.5398
     9.2765   9.2765   9.2765   9.2765   9.5143   9.5143   9.5143   9.5143
    10.3953  10.3953  10.3953  10.3953  11.7354  11.7354  11.7354  11.7354
    12.5151  12.5151  12.5151  12.5151  13.5978  13.5978  13.5978  13.5978
    13.6268  13.6268  13.6268  13.6268  14.6860  14.6860  14.6860  14.6860

     occupation numbers 
     1.0000   1.0000   1.0000   1.0000   1.0000   1.0000   1.0000   1.0000
     1.0000   1.0000   1.0000   1.0000   1.0000   1.0000   1.0000   1.0000
     1.0000   1.0000   1.0000   1.0000   1.0000   1.0000   1.0000   1.0000
     1.0000   1.0000   1.0000   1.0000   1.0000   1.0000   1.0000   1.0000
     1.0000   1.0000   1.0000   1.0000   1.0000   1.0000   1.0000   1.0000
     1.0000   1.0000   1.0000   1.0000   1.0000   1.0000   1.0000   1.0000
     1.0000   1.0000   1.0000   1.0000   1.0000   1.0000   1.0000   1.0000
     1.0000   1.0000   1.0000   1.0000   1.0000   1.0000   1.0000   1.0000
     1.0000   1.0000   1.0000   1.0000   1.0000   1.0000   1.0000   1.0000
     1.0000   1.0000   1.0000   1.0000   1.0022   1.0022   1.0022   1.0022
    -0.0000  -0.0000  -0.0000  -0.0000  -0.0000  -0.0000  -0.0000  -0.0000
    -0.0000  -0.0000  -0.0000  -0.0000  -0.0000  -0.0000  -0.0000  -0.0000

     the Fermi energy is    12.0553 ev

!    total energy              =    -754.32168174 Ry
     estimated scf accuracy    <          1.1E-09 Ry
     smearing contrib. (-TS)   =      -0.00039962 Ry
     internal energy E=F+TS    =    -754.32128212 Ry

     The total energy is F=E-TS. E is the sum of the following terms:
     one-electron contribution =    -189.19875563 Ry
     hartree contribution      =     154.60407270 Ry
     xc contribution           =    -170.25783555 Ry
     ewald contribution        =    -549.46876363 Ry

     convergence has been achieved in  17 iterations

     Writing all to output data dir ./Bi2Pd/Bi2Pd.save/
 
     init_run     :      3.08s CPU      3.39s WALL (       1 calls)
     electrons    :    190.07s CPU    201.23s WALL (       1 calls)

     Called by init_run:
     wfcinit      :      2.26s CPU      2.37s WALL (       1 calls)
     wfcinit:atom :      0.04s CPU      0.04s WALL (      18 calls)
     wfcinit:wfcr :      2.07s CPU      2.18s WALL (      18 calls)
     potinit      :      0.01s CPU      0.02s WALL (       1 calls)
     hinit0       :      0.23s CPU      0.23s WALL (       1 calls)

     Called by electrons:
     c_bands      :    139.62s CPU    143.71s WALL (      18 calls)
     sum_band     :     39.00s CPU     43.54s WALL (      18 calls)
     v_of_rho     :      0.08s CPU      0.08s WALL (      18 calls)
     v_h          :      0.04s CPU      0.04s WALL (      18 calls)
     v_xc         :      0.04s CPU      0.04s WALL (      18 calls)
     newd         :     11.37s CPU     14.05s WALL (      18 calls)
     mix_rho      :      0.37s CPU      0.39s WALL (      18 calls)

     Called by c_bands:
     init_us_2    :      0.99s CPU      1.01s WALL (     666 calls)
     init_us_2:cp :      0.98s CPU      1.01s WALL (     666 calls)
     cegterg      :    121.47s CPU    125.43s WALL (     324 calls)

     Called by sum_band:
     sum_band:wei :      0.02s CPU      0.02s WALL (      18 calls)
     sum_band:loo :     24.81s CPU     25.60s WALL (      18 calls)
     sum_band:buf :      0.45s CPU      0.46s WALL (     324 calls)
     sum_band:ini :      0.49s CPU      0.49s WALL (     324 calls)
     sum_band:cal :      3.84s CPU      3.97s WALL (     324 calls)
     sum_band:bec :      1.06s CPU      1.06s WALL (     324 calls)
     addusdens    :     13.88s CPU     17.52s WALL (      18 calls)
                                        0.00s GPU  (      18 calls)
     addusd:skk   :      0.02s CPU      0.02s WALL (      36 calls)
                                        0.00s GPU  (      36 calls)

     Called by *egterg:
     cdiaghg      :      5.48s CPU      5.53s WALL (    1078 calls)
     cegterg:over :     11.00s CPU     11.20s WALL (     772 calls)
     cegterg:upda :      6.02s CPU      6.05s WALL (     772 calls)
     cegterg:last :     13.18s CPU     13.21s WALL (     601 calls)
     h_psi        :     69.56s CPU     72.07s WALL (    1114 calls)
     s_psi        :     10.09s CPU     10.62s WALL (    1114 calls)
     g_psi        :      0.37s CPU      0.38s WALL (     772 calls)

     Called by h_psi:
     h_psi:calbec :      9.58s CPU      9.76s WALL (    1114 calls)
     vloc_psi     :     47.66s CPU     49.69s WALL (    1114 calls)
     add_vuspsi   :     10.82s CPU     10.85s WALL (    1114 calls)

     General routines
     calbec       :     13.41s CPU     13.72s WALL (    1438 calls)
     fft          :      0.26s CPU      0.28s WALL (     314 calls)
     ffts         :      0.03s CPU      0.03s WALL (     144 calls)
     fftw         :     35.36s CPU     36.81s WALL (  363708 calls)
     interpolate  :      0.08s CPU      0.09s WALL (      72 calls)
 
     Parallel routines
 
     PWSCF        :   3m13.38s CPU   3m25.10s WALL

 
   This run was terminated on:  11:56:57   6Jan2024            

=------------------------------------------------------------------------------=
   JOB DONE.
=------------------------------------------------------------------------------=
