
     Program PWSCF v.7.2 starts on  6Jan2024 at 14:23:18 

     This program is part of the open-source Quantum ESPRESSO suite
     for quantum simulation of materials; please cite
         "P. Giannozzi et al., J. Phys.:Condens. Matter 21 395502 (2009);
         "P. Giannozzi et al., J. Phys.:Condens. Matter 29 465901 (2017);
         "P. Giannozzi et al., J. Chem. Phys. 152 154105 (2020);
          URL http://www.quantum-espresso.org", 
     in publications or presentations arising from this work. More details at
     http://www.quantum-espresso.org/quote

     Parallel version (MPI), running on     4 processors

     MPI processes distributed on     1 nodes
     10842 MiB available memory on the printing compute node when the environment starts
 
     Waiting for input...
     Reading input from standard input

     Current dimensions of program PWSCF are:
     Max number of different atomic species (ntypx) = 10
     Max number of k-points (npk) =  40000
     Max angular momentum in pseudopotentials (lmaxx) =  4
     file Bi.rel-pz-dn-rrkjus_psl.1.0.0.UPF: wavefunction(s)  5D 5D renormalized
     file Pd.rel-pz-n-rrkjus_psl.1.0.0.UPF: wavefunction(s)  4D 4D renormalized

     Atomic positions and unit cell read from directory:
     ./Bi2Pd/Bi2Pd.save/
 
     Found identity + ( -0.5000 -0.5000  0.5000) symmetry
     This is a supercell, fractional translations are disabled
 
     R & G space division:  proc/nbgrp/npool/nimage =       4
     Subspace diagonalization in iterative solution of the eigenvalue problem:
     one sub-group per band group will be used
     custom distributed-memory algorithm (size of sub-group:  2*  2 procs)

 
     Parallelization info
     --------------------
     sticks:   dense  smooth     PW     G-vecs:    dense   smooth      PW
     Min         439     194     59                54325    16096    2617
     Max         440     195     61                54338    16109    2620
     Sum        1757     777    241               217317    64403   10475
 
     Using Slab Decomposition
 


     bravais-lattice index     =            6
     lattice parameter (alat)  =       6.3999  a.u.
     unit-cell volume          =    1025.3225 (a.u.)^3
     number of atoms/cell      =            6
     number of atomic types    =            2
     number of electrons       =        80.00
     number of Kohn-Sham states=          160
     kinetic-energy cutoff     =      60.0000  Ry
     charge density cutoff     =     540.0000  Ry
     Exchange-correlation= LDA
                           (   1   1   0   0   0   0   0)
     Non magnetic calculation with spin-orbit


     celldm(1)=   6.399898  celldm(2)=   0.000000  celldm(3)=   3.911483
     celldm(4)=   0.000000  celldm(5)=   0.000000  celldm(6)=   0.000000

     crystal axes: (cart. coord. in units of alat)
               a(1) = (   1.000000   0.000000   0.000000 )  
               a(2) = (   0.000000   1.000000   0.000000 )  
               a(3) = (   0.000000   0.000000   3.911483 )  

     reciprocal axes: (cart. coord. in units 2 pi/alat)
               b(1) = (  1.000000  0.000000  0.000000 )  
               b(2) = (  0.000000  1.000000  0.000000 )  
               b(3) = (  0.000000  0.000000  0.255658 )  


     PseudoPot. # 1 for Bi read from file:
     ~/q-e/pseudo/pslibrary/rel-pz/PSEUDOPOTENTIALS/Bi.rel-pz-dn-rrkjus_psl.1.0.0.UPF
     MD5 check sum: Not computed, couldn't open file
     Pseudo is Ultrasoft + core correction, Zval = 15.0
     Generated using 'atomic' code by A. Dal Corso  v.7.2
     Using radial grid of 1283 points, 10 beta functions with: 
                l(1) =   0
                l(2) =   0
                l(3) =   1
                l(4) =   1
                l(5) =   1
                l(6) =   1
                l(7) =   2
                l(8) =   2
                l(9) =   2
               l(10) =   2
     Q(r) pseudized with 0 coefficients 


     PseudoPot. # 2 for Pd read from file:
     ~/q-e/pseudo/pslibrary/rel-pz/PSEUDOPOTENTIALS/Pd.rel-pz-n-rrkjus_psl.1.0.0.UPF
     MD5 check sum: Not computed, couldn't open file
     Pseudo is Ultrasoft + core correction, Zval = 10.0
     Generated using 'atomic' code by A. Dal Corso  v.7.2
     Using radial grid of 1235 points, 10 beta functions with: 
                l(1) =   0
                l(2) =   0
                l(3) =   1
                l(4) =   1
                l(5) =   1
                l(6) =   1
                l(7) =   2
                l(8) =   2
                l(9) =   2
               l(10) =   2
     Q(r) pseudized with 0 coefficients 


     atomic species   valence    mass     pseudopotential
     Bi               15.00   208.98000     Bi( 1.00)
     Pd               10.00   106.42000     Pd( 1.00)

     16 Sym. Ops., with inversion, found


                                    s                        frac. trans.

      isym =  1     identity                                     

 cryst.   s( 1) = (     1          0          0      )
                  (     0          1          0      )
                  (     0          0          1      )

 cart.    s( 1) = (  1.0000000  0.0000000  0.0000000 )
                  (  0.0000000  1.0000000  0.0000000 )
                  (  0.0000000  0.0000000  1.0000000 )


      isym =  2     180 deg rotation - cart. axis [0,0,1]        

 cryst.   s( 2) = (    -1          0          0      )
                  (     0         -1          0      )
                  (     0          0          1      )

 cart.    s( 2) = ( -1.0000000  0.0000000  0.0000000 )
                  (  0.0000000 -1.0000000  0.0000000 )
                  (  0.0000000  0.0000000  1.0000000 )


      isym =  3     180 deg rotation - cart. axis [0,1,0]        

 cryst.   s( 3) = (    -1          0          0      )
                  (     0          1          0      )
                  (     0          0         -1      )

 cart.    s( 3) = ( -1.0000000  0.0000000  0.0000000 )
                  (  0.0000000  1.0000000  0.0000000 )
                  (  0.0000000  0.0000000 -1.0000000 )


      isym =  4     180 deg rotation - cart. axis [1,0,0]        

 cryst.   s( 4) = (     1          0          0      )
                  (     0         -1          0      )
                  (     0          0         -1      )

 cart.    s( 4) = (  1.0000000  0.0000000  0.0000000 )
                  (  0.0000000 -1.0000000  0.0000000 )
                  (  0.0000000  0.0000000 -1.0000000 )


      isym =  5     180 deg rotation - cart. axis [1,1,0]        

 cryst.   s( 5) = (     0          1          0      )
                  (     1          0          0      )
                  (     0          0         -1      )

 cart.    s( 5) = (  0.0000000  1.0000000  0.0000000 )
                  (  1.0000000  0.0000000  0.0000000 )
                  (  0.0000000  0.0000000 -1.0000000 )


      isym =  6     180 deg rotation - cart. axis [1,-1,0]       

 cryst.   s( 6) = (     0         -1          0      )
                  (    -1          0          0      )
                  (     0          0         -1      )

 cart.    s( 6) = (  0.0000000 -1.0000000  0.0000000 )
                  ( -1.0000000  0.0000000  0.0000000 )
                  (  0.0000000  0.0000000 -1.0000000 )


      isym =  7      90 deg rotation - cart. axis [0,0,-1]       

 cryst.   s( 7) = (     0         -1          0      )
                  (     1          0          0      )
                  (     0          0          1      )

 cart.    s( 7) = (  0.0000000  1.0000000  0.0000000 )
                  ( -1.0000000  0.0000000  0.0000000 )
                  (  0.0000000  0.0000000  1.0000000 )


      isym =  8      90 deg rotation - cart. axis [0,0,1]        

 cryst.   s( 8) = (     0          1          0      )
                  (    -1          0          0      )
                  (     0          0          1      )

 cart.    s( 8) = (  0.0000000 -1.0000000  0.0000000 )
                  (  1.0000000  0.0000000  0.0000000 )
                  (  0.0000000  0.0000000  1.0000000 )


      isym =  9     inversion                                    

 cryst.   s( 9) = (    -1          0          0      )
                  (     0         -1          0      )
                  (     0          0         -1      )

 cart.    s( 9) = ( -1.0000000  0.0000000  0.0000000 )
                  (  0.0000000 -1.0000000  0.0000000 )
                  (  0.0000000  0.0000000 -1.0000000 )


      isym = 10     inv. 180 deg rotation - cart. axis [0,0,1]   

 cryst.   s(10) = (     1          0          0      )
                  (     0          1          0      )
                  (     0          0         -1      )

 cart.    s(10) = (  1.0000000  0.0000000  0.0000000 )
                  (  0.0000000  1.0000000  0.0000000 )
                  (  0.0000000  0.0000000 -1.0000000 )


      isym = 11     inv. 180 deg rotation - cart. axis [0,1,0]   

 cryst.   s(11) = (     1          0          0      )
                  (     0         -1          0      )
                  (     0          0          1      )

 cart.    s(11) = (  1.0000000  0.0000000  0.0000000 )
                  (  0.0000000 -1.0000000  0.0000000 )
                  (  0.0000000  0.0000000  1.0000000 )


      isym = 12     inv. 180 deg rotation - cart. axis [1,0,0]   

 cryst.   s(12) = (    -1          0          0      )
                  (     0          1          0      )
                  (     0          0          1      )

 cart.    s(12) = ( -1.0000000  0.0000000  0.0000000 )
                  (  0.0000000  1.0000000  0.0000000 )
                  (  0.0000000  0.0000000  1.0000000 )


      isym = 13     inv. 180 deg rotation - cart. axis [1,1,0]   

 cryst.   s(13) = (     0         -1          0      )
                  (    -1          0          0      )
                  (     0          0          1      )

 cart.    s(13) = (  0.0000000 -1.0000000  0.0000000 )
                  ( -1.0000000  0.0000000  0.0000000 )
                  (  0.0000000  0.0000000  1.0000000 )


      isym = 14     inv. 180 deg rotation - cart. axis [1,-1,0]  

 cryst.   s(14) = (     0          1          0      )
                  (     1          0          0      )
                  (     0          0          1      )

 cart.    s(14) = (  0.0000000  1.0000000  0.0000000 )
                  (  1.0000000  0.0000000  0.0000000 )
                  (  0.0000000  0.0000000  1.0000000 )


      isym = 15     inv.  90 deg rotation - cart. axis [0,0,-1]  

 cryst.   s(15) = (     0          1          0      )
                  (    -1          0          0      )
                  (     0          0         -1      )

 cart.    s(15) = (  0.0000000 -1.0000000  0.0000000 )
                  (  1.0000000  0.0000000  0.0000000 )
                  (  0.0000000  0.0000000 -1.0000000 )


      isym = 16     inv.  90 deg rotation - cart. axis [0,0,1]   

 cryst.   s(16) = (     0         -1          0      )
                  (     1          0          0      )
                  (     0          0         -1      )

 cart.    s(16) = (  0.0000000  1.0000000  0.0000000 )
                  ( -1.0000000  0.0000000  0.0000000 )
                  (  0.0000000  0.0000000 -1.0000000 )


     double point group D_4h(4/mmm)
     there are 14 classes and  4 irreducible representations
     the character table:

       E     -E    2C4   -2C4   C2    2C2' 2C2'' i     -i    2S4   -2S4   s_h 
                               -C2   -2C2' -2C2'                         -s_h 
G_6+   2.00 -2.00  1.41 -1.41  0.00  0.00  0.00  2.00 -2.00  1.41 -1.41  0.00
G_7+   2.00 -2.00 -1.41  1.41  0.00  0.00  0.00  2.00 -2.00 -1.41  1.41  0.00
G_6-   2.00 -2.00  1.41 -1.41  0.00  0.00  0.00 -2.00  2.00 -1.41  1.41  0.00
G_7-   2.00 -2.00 -1.41  1.41  0.00  0.00  0.00 -2.00  2.00  1.41 -1.41  0.00

        2s_v  2s_d
       -2s_v -2s_d
G_6+   0.00  0.00
G_7+   0.00  0.00
G_6-   0.00  0.00
G_7-   0.00  0.00

     the symmetry operations in each class and the name of the first element:

     E             1
          identity                                               
     -E           -1
          identity E                                             
     2C4           7    8
           90 deg rotation - cart. axis [0,0,-1]                 
     -2C4         -7   -8
           90 deg rotation - cart. axis [0,0,-1] E               
      C2  -C2      2   -2
          180 deg rotation - cart. axis [0,0,1]                  
      2C2'-2C2'    3   -3    4   -4
          180 deg rotation - cart. axis [0,1,0]                  
     2C2''-2C2'    5   -5   -6    6
          180 deg rotation - cart. axis [1,1,0]                  
     i             9
          inversion                                              
     -i           -9
          inversion E                                            
     2S4          15   16
          inv.  90 deg rotation - cart. axis [0,0,-1]            
     -2S4        -15  -16
          inv.  90 deg rotation - cart. axis [0,0,-1] E          
      s_h -s_h    10  -10
          inv. 180 deg rotation - cart. axis [0,0,1]             
      2s_v-2s_v   11  -11   12  -12
          inv. 180 deg rotation - cart. axis [0,1,0]             
      2s_d-2s_d   13  -13  -14   14
          inv. 180 deg rotation - cart. axis [1,1,0]             

   Cartesian axes

     site n.     atom                  positions (alat units)
         1        Bi     tau(   1) = (   0.5000000   0.5000000   0.5175674  )
         2        Bi     tau(   2) = (   0.5000000   0.5000000   3.3939153  )
         3        Bi     tau(   3) = (   0.0000000   0.0000000   1.4381739  )
         4        Bi     tau(   4) = (   0.0000000   0.0000000   2.4733087  )
         5        Pd     tau(   5) = (   0.0000000   0.0000000   0.0000000  )
         6        Pd     tau(   6) = (   0.5000000   0.5000000   1.9557413  )

   Crystallographic axes

     site n.     atom                  positions (cryst. coord.)
         1        Bi     tau(   1) = (  0.5000000  0.5000000  0.1323200  )
         2        Bi     tau(   2) = (  0.5000000  0.5000000  0.8676800  )
         3        Bi     tau(   3) = (  0.0000000  0.0000000  0.3676800  )
         4        Bi     tau(   4) = (  0.0000000  0.0000000  0.6323200  )
         5        Pd     tau(   5) = (  0.0000000  0.0000000  0.0000000  )
         6        Pd     tau(   6) = (  0.5000000  0.5000000  0.5000000  )

     number of k points=    75 (tetrahedron method)
                       cart. coord. in units 2pi/alat
        k(    1) = (   0.0000000   0.0000000   0.0000000), wk =   0.0019531
        k(    2) = (   0.0000000   0.0000000   0.0319572), wk =   0.0039062
        k(    3) = (   0.0000000   0.0000000   0.0639144), wk =   0.0039062
        k(    4) = (   0.0000000   0.0000000   0.0958716), wk =   0.0039062
        k(    5) = (   0.0000000   0.0000000  -0.1278288), wk =   0.0019531
        k(    6) = (   0.0000000   0.1250000   0.0000000), wk =   0.0078125
        k(    7) = (   0.0000000   0.1250000   0.0319572), wk =   0.0156250
        k(    8) = (   0.0000000   0.1250000   0.0639144), wk =   0.0156250
        k(    9) = (   0.0000000   0.1250000   0.0958716), wk =   0.0156250
        k(   10) = (   0.0000000   0.1250000  -0.1278288), wk =   0.0078125
        k(   11) = (   0.0000000   0.2500000   0.0000000), wk =   0.0078125
        k(   12) = (   0.0000000   0.2500000   0.0319572), wk =   0.0156250
        k(   13) = (   0.0000000   0.2500000   0.0639144), wk =   0.0156250
        k(   14) = (   0.0000000   0.2500000   0.0958716), wk =   0.0156250
        k(   15) = (   0.0000000   0.2500000  -0.1278288), wk =   0.0078125
        k(   16) = (   0.0000000   0.3750000   0.0000000), wk =   0.0078125
        k(   17) = (   0.0000000   0.3750000   0.0319572), wk =   0.0156250
        k(   18) = (   0.0000000   0.3750000   0.0639144), wk =   0.0156250
        k(   19) = (   0.0000000   0.3750000   0.0958716), wk =   0.0156250
        k(   20) = (   0.0000000   0.3750000  -0.1278288), wk =   0.0078125
        k(   21) = (   0.0000000  -0.5000000   0.0000000), wk =   0.0039062
        k(   22) = (   0.0000000  -0.5000000   0.0319572), wk =   0.0078125
        k(   23) = (   0.0000000  -0.5000000   0.0639144), wk =   0.0078125
        k(   24) = (   0.0000000  -0.5000000   0.0958716), wk =   0.0078125
        k(   25) = (   0.0000000  -0.5000000  -0.1278288), wk =   0.0039062
        k(   26) = (   0.1250000   0.1250000   0.0000000), wk =   0.0078125
        k(   27) = (   0.1250000   0.1250000   0.0319572), wk =   0.0156250
        k(   28) = (   0.1250000   0.1250000   0.0639144), wk =   0.0156250
        k(   29) = (   0.1250000   0.1250000   0.0958716), wk =   0.0156250
        k(   30) = (   0.1250000   0.1250000  -0.1278288), wk =   0.0078125
        k(   31) = (   0.1250000   0.2500000   0.0000000), wk =   0.0156250
        k(   32) = (   0.1250000   0.2500000   0.0319572), wk =   0.0312500
        k(   33) = (   0.1250000   0.2500000   0.0639144), wk =   0.0312500
        k(   34) = (   0.1250000   0.2500000   0.0958716), wk =   0.0312500
        k(   35) = (   0.1250000   0.2500000  -0.1278288), wk =   0.0156250
        k(   36) = (   0.1250000   0.3750000   0.0000000), wk =   0.0156250
        k(   37) = (   0.1250000   0.3750000   0.0319572), wk =   0.0312500
        k(   38) = (   0.1250000   0.3750000   0.0639144), wk =   0.0312500
        k(   39) = (   0.1250000   0.3750000   0.0958716), wk =   0.0312500
        k(   40) = (   0.1250000   0.3750000  -0.1278288), wk =   0.0156250
        k(   41) = (   0.1250000  -0.5000000   0.0000000), wk =   0.0078125
        k(   42) = (   0.1250000  -0.5000000   0.0319572), wk =   0.0156250
        k(   43) = (   0.1250000  -0.5000000   0.0639144), wk =   0.0156250
        k(   44) = (   0.1250000  -0.5000000   0.0958716), wk =   0.0156250
        k(   45) = (   0.1250000  -0.5000000  -0.1278288), wk =   0.0078125
        k(   46) = (   0.2500000   0.2500000   0.0000000), wk =   0.0078125
        k(   47) = (   0.2500000   0.2500000   0.0319572), wk =   0.0156250
        k(   48) = (   0.2500000   0.2500000   0.0639144), wk =   0.0156250
        k(   49) = (   0.2500000   0.2500000   0.0958716), wk =   0.0156250
        k(   50) = (   0.2500000   0.2500000  -0.1278288), wk =   0.0078125
        k(   51) = (   0.2500000   0.3750000   0.0000000), wk =   0.0156250
        k(   52) = (   0.2500000   0.3750000   0.0319572), wk =   0.0312500
        k(   53) = (   0.2500000   0.3750000   0.0639144), wk =   0.0312500
        k(   54) = (   0.2500000   0.3750000   0.0958716), wk =   0.0312500
        k(   55) = (   0.2500000   0.3750000  -0.1278288), wk =   0.0156250
        k(   56) = (   0.2500000  -0.5000000   0.0000000), wk =   0.0078125
        k(   57) = (   0.2500000  -0.5000000   0.0319572), wk =   0.0156250
        k(   58) = (   0.2500000  -0.5000000   0.0639144), wk =   0.0156250
        k(   59) = (   0.2500000  -0.5000000   0.0958716), wk =   0.0156250
        k(   60) = (   0.2500000  -0.5000000  -0.1278288), wk =   0.0078125
        k(   61) = (   0.3750000   0.3750000   0.0000000), wk =   0.0078125
        k(   62) = (   0.3750000   0.3750000   0.0319572), wk =   0.0156250
        k(   63) = (   0.3750000   0.3750000   0.0639144), wk =   0.0156250
        k(   64) = (   0.3750000   0.3750000   0.0958716), wk =   0.0156250
        k(   65) = (   0.3750000   0.3750000  -0.1278288), wk =   0.0078125
        k(   66) = (   0.3750000  -0.5000000   0.0000000), wk =   0.0078125
        k(   67) = (   0.3750000  -0.5000000   0.0319572), wk =   0.0156250
        k(   68) = (   0.3750000  -0.5000000   0.0639144), wk =   0.0156250
        k(   69) = (   0.3750000  -0.5000000   0.0958716), wk =   0.0156250
        k(   70) = (   0.3750000  -0.5000000  -0.1278288), wk =   0.0078125
        k(   71) = (  -0.5000000  -0.5000000   0.0000000), wk =   0.0019531
        k(   72) = (  -0.5000000  -0.5000000   0.0319572), wk =   0.0039062
        k(   73) = (  -0.5000000  -0.5000000   0.0639144), wk =   0.0039062
        k(   74) = (  -0.5000000  -0.5000000   0.0958716), wk =   0.0039062
        k(   75) = (  -0.5000000  -0.5000000  -0.1278288), wk =   0.0019531

                       cryst. coord.
        k(    1) = (   0.0000000   0.0000000   0.0000000), wk =   0.0019531
        k(    2) = (   0.0000000   0.0000000   0.1250000), wk =   0.0039062
        k(    3) = (   0.0000000   0.0000000   0.2500000), wk =   0.0039062
        k(    4) = (   0.0000000   0.0000000   0.3750000), wk =   0.0039062
        k(    5) = (   0.0000000   0.0000000  -0.5000000), wk =   0.0019531
        k(    6) = (   0.0000000   0.1250000   0.0000000), wk =   0.0078125
        k(    7) = (   0.0000000   0.1250000   0.1250000), wk =   0.0156250
        k(    8) = (   0.0000000   0.1250000   0.2500000), wk =   0.0156250
        k(    9) = (   0.0000000   0.1250000   0.3750000), wk =   0.0156250
        k(   10) = (   0.0000000   0.1250000  -0.5000000), wk =   0.0078125
        k(   11) = (   0.0000000   0.2500000   0.0000000), wk =   0.0078125
        k(   12) = (   0.0000000   0.2500000   0.1250000), wk =   0.0156250
        k(   13) = (   0.0000000   0.2500000   0.2500000), wk =   0.0156250
        k(   14) = (   0.0000000   0.2500000   0.3750000), wk =   0.0156250
        k(   15) = (   0.0000000   0.2500000  -0.5000000), wk =   0.0078125
        k(   16) = (   0.0000000   0.3750000   0.0000000), wk =   0.0078125
        k(   17) = (   0.0000000   0.3750000   0.1250000), wk =   0.0156250
        k(   18) = (   0.0000000   0.3750000   0.2500000), wk =   0.0156250
        k(   19) = (   0.0000000   0.3750000   0.3750000), wk =   0.0156250
        k(   20) = (   0.0000000   0.3750000  -0.5000000), wk =   0.0078125
        k(   21) = (   0.0000000  -0.5000000   0.0000000), wk =   0.0039062
        k(   22) = (   0.0000000  -0.5000000   0.1250000), wk =   0.0078125
        k(   23) = (   0.0000000  -0.5000000   0.2500000), wk =   0.0078125
        k(   24) = (   0.0000000  -0.5000000   0.3750000), wk =   0.0078125
        k(   25) = (   0.0000000  -0.5000000  -0.5000000), wk =   0.0039062
        k(   26) = (   0.1250000   0.1250000   0.0000000), wk =   0.0078125
        k(   27) = (   0.1250000   0.1250000   0.1250000), wk =   0.0156250
        k(   28) = (   0.1250000   0.1250000   0.2500000), wk =   0.0156250
        k(   29) = (   0.1250000   0.1250000   0.3750000), wk =   0.0156250
        k(   30) = (   0.1250000   0.1250000  -0.5000000), wk =   0.0078125
        k(   31) = (   0.1250000   0.2500000   0.0000000), wk =   0.0156250
        k(   32) = (   0.1250000   0.2500000   0.1250000), wk =   0.0312500
        k(   33) = (   0.1250000   0.2500000   0.2500000), wk =   0.0312500
        k(   34) = (   0.1250000   0.2500000   0.3750000), wk =   0.0312500
        k(   35) = (   0.1250000   0.2500000  -0.5000000), wk =   0.0156250
        k(   36) = (   0.1250000   0.3750000   0.0000000), wk =   0.0156250
        k(   37) = (   0.1250000   0.3750000   0.1250000), wk =   0.0312500
        k(   38) = (   0.1250000   0.3750000   0.2500000), wk =   0.0312500
        k(   39) = (   0.1250000   0.3750000   0.3750000), wk =   0.0312500
        k(   40) = (   0.1250000   0.3750000  -0.5000000), wk =   0.0156250
        k(   41) = (   0.1250000  -0.5000000   0.0000000), wk =   0.0078125
        k(   42) = (   0.1250000  -0.5000000   0.1250000), wk =   0.0156250
        k(   43) = (   0.1250000  -0.5000000   0.2500000), wk =   0.0156250
        k(   44) = (   0.1250000  -0.5000000   0.3750000), wk =   0.0156250
        k(   45) = (   0.1250000  -0.5000000  -0.5000000), wk =   0.0078125
        k(   46) = (   0.2500000   0.2500000   0.0000000), wk =   0.0078125
        k(   47) = (   0.2500000   0.2500000   0.1250000), wk =   0.0156250
        k(   48) = (   0.2500000   0.2500000   0.2500000), wk =   0.0156250
        k(   49) = (   0.2500000   0.2500000   0.3750000), wk =   0.0156250
        k(   50) = (   0.2500000   0.2500000  -0.5000000), wk =   0.0078125
        k(   51) = (   0.2500000   0.3750000   0.0000000), wk =   0.0156250
        k(   52) = (   0.2500000   0.3750000   0.1250000), wk =   0.0312500
        k(   53) = (   0.2500000   0.3750000   0.2500000), wk =   0.0312500
        k(   54) = (   0.2500000   0.3750000   0.3750000), wk =   0.0312500
        k(   55) = (   0.2500000   0.3750000  -0.5000000), wk =   0.0156250
        k(   56) = (   0.2500000  -0.5000000   0.0000000), wk =   0.0078125
        k(   57) = (   0.2500000  -0.5000000   0.1250000), wk =   0.0156250
        k(   58) = (   0.2500000  -0.5000000   0.2500000), wk =   0.0156250
        k(   59) = (   0.2500000  -0.5000000   0.3750000), wk =   0.0156250
        k(   60) = (   0.2500000  -0.5000000  -0.5000000), wk =   0.0078125
        k(   61) = (   0.3750000   0.3750000   0.0000000), wk =   0.0078125
        k(   62) = (   0.3750000   0.3750000   0.1250000), wk =   0.0156250
        k(   63) = (   0.3750000   0.3750000   0.2500000), wk =   0.0156250
        k(   64) = (   0.3750000   0.3750000   0.3750000), wk =   0.0156250
        k(   65) = (   0.3750000   0.3750000  -0.5000000), wk =   0.0078125
        k(   66) = (   0.3750000  -0.5000000   0.0000000), wk =   0.0078125
        k(   67) = (   0.3750000  -0.5000000   0.1250000), wk =   0.0156250
        k(   68) = (   0.3750000  -0.5000000   0.2500000), wk =   0.0156250
        k(   69) = (   0.3750000  -0.5000000   0.3750000), wk =   0.0156250
        k(   70) = (   0.3750000  -0.5000000  -0.5000000), wk =   0.0078125
        k(   71) = (  -0.5000000  -0.5000000   0.0000000), wk =   0.0019531
        k(   72) = (  -0.5000000  -0.5000000   0.1250000), wk =   0.0039062
        k(   73) = (  -0.5000000  -0.5000000   0.2500000), wk =   0.0039062
        k(   74) = (  -0.5000000  -0.5000000   0.3750000), wk =   0.0039062
        k(   75) = (  -0.5000000  -0.5000000  -0.5000000), wk =   0.0019531

     Dense  grid:   217317 G-vectors     FFT dimensions: (  48,  48, 192)

     Smooth grid:    64403 G-vectors     FFT dimensions: (  32,  32, 125)

     Dynamical RAM for                 wfc:       9.82 MB

     Dynamical RAM for     wfc (w. buffer):       9.82 MB

     Dynamical RAM for           str. fact:       1.66 MB

     Dynamical RAM for           local pot:       0.00 MB

     Dynamical RAM for          nlocal pot:       6.26 MB

     Dynamical RAM for                qrad:       9.76 MB

     Dynamical RAM for          rho,v,vnew:      20.07 MB

     Dynamical RAM for           G-vectors:       3.23 MB

     Dynamical RAM for          h,s,v(r/c):       1.17 MB

     Dynamical RAM for          <psi|beta>:       1.00 MB

     Dynamical RAM for                 psi:      19.64 MB

     Dynamical RAM for                hpsi:      19.64 MB

     Dynamical RAM for                spsi:      19.64 MB

     Dynamical RAM for      wfcinit/wfcrot:      15.32 MB

     Dynamical RAM for           addusdens:     508.97 MB

     Estimated static dynamical RAM per process >      60.04 MB

     Estimated max dynamical RAM per process >     569.01 MB

     Estimated total dynamical RAM >       2.22 GB

     The potential is recalculated from file :
     ./Bi2Pd/Bi2Pd.save/charge-density

     Starting wfcs are  108 randomized atomic wfcs +   52 random wfcs

     Band Structure Calculation
     Davidson diagonalization with overlap

     Computing kpt #:     1  of    75
     total cpu time spent up to now is        9.4 secs

     Computing kpt #:     2  of    75
     total cpu time spent up to now is       17.6 secs

     Computing kpt #:     3  of    75
     total cpu time spent up to now is       27.5 secs

     Computing kpt #:     4  of    75
     total cpu time spent up to now is       37.6 secs

     Computing kpt #:     5  of    75
     total cpu time spent up to now is       48.3 secs

     Computing kpt #:     6  of    75
     total cpu time spent up to now is       58.3 secs

     Computing kpt #:     7  of    75
     total cpu time spent up to now is       68.3 secs

     Computing kpt #:     8  of    75
     total cpu time spent up to now is       79.3 secs

     Computing kpt #:     9  of    75
     total cpu time spent up to now is       90.3 secs

     Computing kpt #:    10  of    75
     total cpu time spent up to now is      100.3 secs

     Computing kpt #:    11  of    75
     total cpu time spent up to now is      109.7 secs

     Computing kpt #:    12  of    75
     total cpu time spent up to now is      119.0 secs

     Computing kpt #:    13  of    75
     total cpu time spent up to now is      128.6 secs

     Computing kpt #:    14  of    75
     total cpu time spent up to now is      138.3 secs

     Computing kpt #:    15  of    75
     total cpu time spent up to now is      147.8 secs

     Computing kpt #:    16  of    75
     total cpu time spent up to now is      158.6 secs

     Computing kpt #:    17  of    75
     c_bands:  1 eigenvalues not converged
     total cpu time spent up to now is      171.4 secs

     Computing kpt #:    18  of    75
     total cpu time spent up to now is      181.1 secs

     Computing kpt #:    19  of    75
     total cpu time spent up to now is      191.9 secs

     Computing kpt #:    20  of    75
     total cpu time spent up to now is      201.8 secs

     Computing kpt #:    21  of    75
     total cpu time spent up to now is      211.3 secs

     Computing kpt #:    22  of    75
     total cpu time spent up to now is      221.0 secs

     Computing kpt #:    23  of    75
     total cpu time spent up to now is      230.8 secs

     Computing kpt #:    24  of    75
     total cpu time spent up to now is      243.5 secs

     Computing kpt #:    25  of    75
     total cpu time spent up to now is      254.2 secs

     Computing kpt #:    26  of    75
     total cpu time spent up to now is      265.2 secs

     Computing kpt #:    27  of    75
     total cpu time spent up to now is      276.3 secs

     Computing kpt #:    28  of    75
     total cpu time spent up to now is      286.8 secs

     Computing kpt #:    29  of    75
     total cpu time spent up to now is      296.9 secs

     Computing kpt #:    30  of    75
     total cpu time spent up to now is      307.8 secs

     Computing kpt #:    31  of    75
     total cpu time spent up to now is      319.7 secs

     Computing kpt #:    32  of    75
     total cpu time spent up to now is      330.5 secs

     Computing kpt #:    33  of    75
     total cpu time spent up to now is      340.5 secs

     Computing kpt #:    34  of    75
     total cpu time spent up to now is      351.3 secs

     Computing kpt #:    35  of    75
     total cpu time spent up to now is      361.3 secs

     Computing kpt #:    36  of    75
     total cpu time spent up to now is      371.1 secs

     Computing kpt #:    37  of    75
     total cpu time spent up to now is      381.1 secs

     Computing kpt #:    38  of    75
     total cpu time spent up to now is      391.7 secs

     Computing kpt #:    39  of    75
     total cpu time spent up to now is      402.6 secs

     Computing kpt #:    40  of    75
     total cpu time spent up to now is      412.4 secs

     Computing kpt #:    41  of    75
     total cpu time spent up to now is      425.1 secs

     Computing kpt #:    42  of    75
     total cpu time spent up to now is      435.0 secs

     Computing kpt #:    43  of    75
     total cpu time spent up to now is      444.7 secs

     Computing kpt #:    44  of    75
     total cpu time spent up to now is      454.4 secs

     Computing kpt #:    45  of    75
     total cpu time spent up to now is      464.0 secs

     Computing kpt #:    46  of    75
     total cpu time spent up to now is      474.8 secs

     Computing kpt #:    47  of    75
     total cpu time spent up to now is      487.4 secs

     Computing kpt #:    48  of    75
     total cpu time spent up to now is      497.1 secs

     Computing kpt #:    49  of    75
     total cpu time spent up to now is      507.8 secs

     Computing kpt #:    50  of    75
     total cpu time spent up to now is      518.0 secs

     Computing kpt #:    51  of    75
     total cpu time spent up to now is      529.7 secs

     Computing kpt #:    52  of    75
     c_bands:  1 eigenvalues not converged
     total cpu time spent up to now is      542.5 secs

     Computing kpt #:    53  of    75
     total cpu time spent up to now is      553.4 secs

     Computing kpt #:    54  of    75
     total cpu time spent up to now is      564.5 secs

     Computing kpt #:    55  of    75
     total cpu time spent up to now is      574.5 secs

     Computing kpt #:    56  of    75
     total cpu time spent up to now is      584.4 secs

     Computing kpt #:    57  of    75
     total cpu time spent up to now is      594.1 secs

     Computing kpt #:    58  of    75
     total cpu time spent up to now is      604.7 secs

     Computing kpt #:    59  of    75
     total cpu time spent up to now is      615.5 secs

     Computing kpt #:    60  of    75
     total cpu time spent up to now is      625.4 secs

     Computing kpt #:    61  of    75
     total cpu time spent up to now is      636.3 secs

     Computing kpt #:    62  of    75
     total cpu time spent up to now is      647.1 secs

     Computing kpt #:    63  of    75
     total cpu time spent up to now is      657.6 secs

     Computing kpt #:    64  of    75
     total cpu time spent up to now is      668.6 secs

     Computing kpt #:    65  of    75
     total cpu time spent up to now is      679.7 secs

     Computing kpt #:    66  of    75
     total cpu time spent up to now is      689.7 secs

     Computing kpt #:    67  of    75
     total cpu time spent up to now is      700.0 secs

     Computing kpt #:    68  of    75
     total cpu time spent up to now is      710.2 secs

     Computing kpt #:    69  of    75
     total cpu time spent up to now is      720.3 secs

     Computing kpt #:    70  of    75
     total cpu time spent up to now is      730.3 secs

     Computing kpt #:    71  of    75
     total cpu time spent up to now is      740.0 secs

     Computing kpt #:    72  of    75
     total cpu time spent up to now is      749.9 secs

     Computing kpt #:    73  of    75
     total cpu time spent up to now is      760.7 secs

     Computing kpt #:    74  of    75
     total cpu time spent up to now is      771.2 secs

     Computing kpt #:    75  of    75
     total cpu time spent up to now is      781.0 secs

     ethr =  1.25E-11,  avg # of iterations = 64.0

     total cpu time spent up to now is      781.2 secs

     End of band structure calculation

          k = 0.0000 0.0000 0.0000 (  8029 PWs)   bands (ev):

   -12.0007 -12.0007 -12.0006 -12.0006 -11.9984 -11.9984 -11.9984 -11.9984
   -11.9946 -11.9946 -11.9844 -11.9844 -11.9775 -11.9775 -11.9677 -11.9677
    -9.0566  -9.0566  -9.0560  -9.0560  -9.0549  -9.0549  -9.0543  -9.0543
    -9.0307  -9.0307  -9.0212  -9.0212  -8.9885  -8.9885  -8.9808  -8.9808
    -8.9366  -8.9366  -8.9261  -8.9261  -8.9195  -8.9195  -8.9074  -8.9074
    -0.8898  -0.8898  -0.3213  -0.3213  -0.0750  -0.0750   0.8328   0.8328
     6.2107   6.2107   7.8175   7.8175   8.4522   8.4522   8.4525   8.4525
     8.9052   8.9052   8.9791   8.9791   9.3238   9.3238   9.3435   9.3435
     9.5131   9.5131   9.7328   9.7328   9.8125   9.8125   9.8144   9.8144
    10.6259  10.6259  12.4257  12.4257  13.2455  13.2455  14.5946  14.5946
    14.7628  14.7628  15.0087  15.0087  15.4680  15.4680  15.5038  15.5038
    16.5217  16.5217  16.8058  16.8058  17.9056  17.9056  18.3896  18.3896
    18.5809  18.5809  19.5927  19.5927  19.6159  19.6159  19.8132  19.8132
    20.8465  20.8465  20.9019  20.9019  21.0643  21.0643  21.3253  21.3253
    21.9179  21.9179  22.3116  22.3116  23.3145  23.3145  23.5965  23.5965
    24.1901  24.1901  24.5169  24.5169  24.5324  24.5324  25.1225  25.1225
    25.2397  25.2397  25.5440  25.5440  26.1616  26.1616  26.4479  26.4479
    26.6686  26.6686  27.9286  27.9286  27.9959  27.9959  28.4733  28.4733
    28.4893  28.4893  28.5118  28.5118  28.5168  28.5168  29.4760  29.4760
    29.8877  29.8877  30.0894  30.0894  30.2507  30.2507  30.7672  30.7672

     occupation numbers 
     1.0000   1.0000   1.0000   1.0000   1.0000   1.0000   1.0000   1.0000
     1.0000   1.0000   1.0000   1.0000   1.0000   1.0000   1.0000   1.0000
     1.0000   1.0000   1.0000   1.0000   1.0000   1.0000   1.0000   1.0000
     1.0000   1.0000   1.0000   1.0000   1.0000   1.0000   1.0000   1.0000
     1.0000   1.0000   1.0000   1.0000   1.0000   1.0000   1.0000   1.0000
     1.0000   1.0000   1.0000   1.0000   1.0000   1.0000   1.0000   1.0000
     1.0000   1.0000   1.0000   1.0000   1.0000   1.0000   1.0000   1.0000
     1.0000   1.0000   1.0000   1.0000   1.0000   1.0000   1.0000   1.0000
     1.0000   1.0000   1.0000   1.0000   1.0000   1.0000   1.0000   1.0000
     1.0000   1.0000   0.9739   0.9739   0.0000   0.0000   0.0000   0.0000
     0.0000   0.0000   0.0000   0.0000   0.0000   0.0000   0.0000   0.0000
     0.0000   0.0000   0.0000   0.0000   0.0000   0.0000   0.0000   0.0000
     0.0000   0.0000   0.0000   0.0000   0.0000   0.0000   0.0000   0.0000
     0.0000   0.0000   0.0000   0.0000   0.0000   0.0000   0.0000   0.0000
     0.0000   0.0000   0.0000   0.0000   0.0000   0.0000   0.0000   0.0000
     0.0000   0.0000   0.0000   0.0000   0.0000   0.0000   0.0000   0.0000
     0.0000   0.0000   0.0000   0.0000   0.0000   0.0000   0.0000   0.0000
     0.0000   0.0000   0.0000   0.0000   0.0000   0.0000   0.0000   0.0000
     0.0000   0.0000   0.0000   0.0000   0.0000   0.0000   0.0000   0.0000
     0.0000   0.0000   0.0000   0.0000   0.0000   0.0000   0.0000   0.0000

          k = 0.0000 0.0000 0.0320 (  8013 PWs)   bands (ev):

   -12.0006 -12.0006 -12.0005 -12.0005 -11.9985 -11.9985 -11.9983 -11.9983
   -11.9941 -11.9941 -11.9852 -11.9852 -11.9766 -11.9766 -11.9679 -11.9679
    -9.0565  -9.0565  -9.0559  -9.0559  -9.0549  -9.0549  -9.0543  -9.0543
    -9.0302  -9.0302  -9.0217  -9.0217  -8.9880  -8.9880  -8.9809  -8.9809
    -8.9363  -8.9363  -8.9270  -8.9270  -8.9184  -8.9184  -8.9077  -8.9077
    -0.8786  -0.8786  -0.3914  -0.3914   0.0065   0.0065   0.8069   0.8069
     6.2574   6.2574   7.7225   7.7225   8.4522   8.4522   8.4525   8.4525
     8.9064   8.9064   8.9679   8.9679   9.3246   9.3246   9.3427   9.3427
     9.5519   9.5519   9.7315   9.7315   9.8125   9.8125   9.8143   9.8143
    10.7087  10.7087  12.3696  12.3696  13.2756  13.2756  14.5742  14.5742
    14.7808  14.7808  14.9125  14.9125  15.4414  15.4414  15.4494  15.4494
    16.5955  16.5955  16.9689  16.9689  17.8558  17.8558  18.3864  18.3864
    18.5780  18.5780  19.4610  19.4610  19.6222  19.6222  19.8040  19.8040
    20.9789  20.9789  20.9832  20.9832  21.0769  21.0769  21.3172  21.3172
    21.9785  21.9785  22.3792  22.3792  23.1978  23.1978  23.6126  23.6126
    24.1547  24.1547  24.2711  24.2711  24.3890  24.3890  24.4403  24.4403
    25.4320  25.4320  26.2430  26.2430  26.3678  26.3678  26.5868  26.5868
    26.7469  26.7469  27.9507  27.9507  27.9520  27.9520  28.3872  28.3872
    28.4314  28.4314  28.4583  28.4583  28.5195  28.5195  29.5459  29.5459
    29.9313  29.9313  29.9482  29.9482  30.1454  30.1454  30.7024  30.7024

     occupation numbers 
     1.0000   1.0000   1.0000   1.0000   1.0000   1.0000   1.0000   1.0000
     1.0000   1.0000   1.0000   1.0000   1.0000   1.0000   1.0000   1.0000
     1.0000   1.0000   1.0000   1.0000   1.0000   1.0000   1.0000   1.0000
     1.0000   1.0000   1.0000   1.0000   1.0000   1.0000   1.0000   1.0000
     1.0000   1.0000   1.0000   1.0000   1.0000   1.0000   1.0000   1.0000
     1.0000   1.0000   1.0000   1.0000   1.0000   1.0000   1.0000   1.0000
     1.0000   1.0000   1.0000   1.0000   1.0000   1.0000   1.0000   1.0000
     1.0000   1.0000   1.0000   1.0000   1.0000   1.0000   1.0000   1.0000
     1.0000   1.0000   1.0000   1.0000   1.0000   1.0000   1.0000   1.0000
     1.0000   1.0000   0.9931   0.9931   0.0000   0.0000   0.0000   0.0000
     0.0000   0.0000   0.0000   0.0000   0.0000   0.0000   0.0000   0.0000
     0.0000   0.0000   0.0000   0.0000   0.0000   0.0000   0.0000   0.0000
     0.0000   0.0000   0.0000   0.0000   0.0000   0.0000   0.0000   0.0000
     0.0000   0.0000   0.0000   0.0000   0.0000   0.0000   0.0000   0.0000
     0.0000   0.0000   0.0000   0.0000   0.0000   0.0000   0.0000   0.0000
     0.0000   0.0000   0.0000   0.0000   0.0000   0.0000   0.0000   0.0000
     0.0000   0.0000   0.0000   0.0000   0.0000   0.0000   0.0000   0.0000
     0.0000   0.0000   0.0000   0.0000   0.0000   0.0000   0.0000   0.0000
     0.0000   0.0000   0.0000   0.0000   0.0000   0.0000   0.0000   0.0000
     0.0000   0.0000   0.0000   0.0000   0.0000   0.0000   0.0000   0.0000

          k = 0.0000 0.0000 0.0639 (  8030 PWs)   bands (ev):

   -12.0007 -12.0007 -12.0005 -12.0005 -11.9984 -11.9984 -11.9983 -11.9983
   -11.9935 -11.9935 -11.9871 -11.9871 -11.9751 -11.9751 -11.9686 -11.9686
    -9.0565  -9.0565  -9.0559  -9.0559  -9.0548  -9.0548  -9.0543  -9.0543
    -9.0295  -9.0295  -9.0230  -9.0230  -8.9873  -8.9873  -8.9817  -8.9817
    -8.9359  -8.9359  -8.9290  -8.9290  -8.9162  -8.9162  -8.9085  -8.9085
    -0.8452  -0.8452  -0.5080  -0.5080   0.1563   0.1563   0.7326   0.7326
     6.3933   6.3933   7.4838   7.4838   8.4522   8.4522   8.4525   8.4525
     8.9100   8.9100   8.9492   8.9492   9.3267   9.3267   9.3406   9.3406
     9.6208   9.6208   9.7272   9.7272   9.8127   9.8127   9.8141   9.8141
    10.9405  10.9405  12.2065  12.2065  13.3675  13.3675  14.3762  14.3762
    14.8341  14.8341  14.8734  14.8734  15.3225  15.3225  15.3653  15.3653
    16.7793  16.7793  17.3378  17.3378  17.7163  17.7163  18.3717  18.3717
    18.5735  18.5735  19.1698  19.1698  19.6405  19.6405  19.7788  19.7788
    21.1109  21.1109  21.2046  21.2046  21.2870  21.2870  21.2936  21.2936
    22.1577  22.1577  22.5721  22.5721  22.9181  22.9181  23.6431  23.6431
    23.6603  23.6603  23.8084  23.8084  24.0217  24.0217  24.0940  24.0940
    25.8114  25.8114  26.8328  26.8328  26.8665  26.8665  26.9777  26.9777
    27.0040  27.0040  27.9333  27.9333  28.0285  28.0285  28.1572  28.1572
    28.2538  28.2538  28.3009  28.3009  28.6141  28.6141  29.4814  29.4814
    29.7623  29.7623  29.8174  29.8174  30.1740  30.1740  30.5026  30.5026

     occupation numbers 
     1.0000   1.0000   1.0000   1.0000   1.0000   1.0000   1.0000   1.0000
     1.0000   1.0000   1.0000   1.0000   1.0000   1.0000   1.0000   1.0000
     1.0000   1.0000   1.0000   1.0000   1.0000   1.0000   1.0000   1.0000
     1.0000   1.0000   1.0000   1.0000   1.0000   1.0000   1.0000   1.0000
     1.0000   1.0000   1.0000   1.0000   1.0000   1.0000   1.0000   1.0000
     1.0000   1.0000   1.0000   1.0000   1.0000   1.0000   1.0000   1.0000
     1.0000   1.0000   1.0000   1.0000   1.0000   1.0000   1.0000   1.0000
     1.0000   1.0000   1.0000   1.0000   1.0000   1.0000   1.0000   1.0000
     1.0000   1.0000   1.0000   1.0000   1.0000   1.0000   1.0000   1.0000
     1.0000   1.0000   1.0000   1.0000   0.0000   0.0000   0.0000   0.0000
     0.0000   0.0000   0.0000   0.0000   0.0000   0.0000   0.0000   0.0000
     0.0000   0.0000   0.0000   0.0000   0.0000   0.0000   0.0000   0.0000
     0.0000   0.0000   0.0000   0.0000   0.0000   0.0000   0.0000   0.0000
     0.0000   0.0000   0.0000   0.0000   0.0000   0.0000   0.0000   0.0000
     0.0000   0.0000   0.0000   0.0000   0.0000   0.0000   0.0000   0.0000
     0.0000   0.0000   0.0000   0.0000   0.0000   0.0000   0.0000   0.0000
     0.0000   0.0000   0.0000   0.0000   0.0000   0.0000   0.0000   0.0000
     0.0000   0.0000   0.0000   0.0000   0.0000   0.0000   0.0000   0.0000
     0.0000   0.0000   0.0000   0.0000   0.0000   0.0000   0.0000   0.0000
     0.0000   0.0000   0.0000   0.0000   0.0000   0.0000   0.0000   0.0000

          k = 0.0000 0.0000 0.0959 (  8022 PWs)   bands (ev):

   -12.0007 -12.0007 -12.0007 -12.0007 -11.9984 -11.9984 -11.9983 -11.9983
   -11.9923 -11.9923 -11.9890 -11.9890 -11.9731 -11.9731 -11.9696 -11.9696
    -9.0565  -9.0565  -9.0562  -9.0562  -9.0546  -9.0546  -9.0545  -9.0545
    -9.0280  -9.0280  -9.0244  -9.0244  -8.9858  -8.9858  -8.9827  -8.9827
    -8.9348  -8.9348  -8.9313  -8.9313  -8.9138  -8.9138  -8.9097  -8.9097
    -0.7901  -0.7901  -0.6189  -0.6189   0.3183   0.3183   0.6185   0.6185
     6.6063   6.6063   7.1825   7.1825   8.4523   8.4523   8.4524   8.4524
     8.9158   8.9158   8.9345   8.9345   9.3298   9.3298   9.3374   9.3374
     9.6720   9.6720   9.7184   9.7184   9.8130   9.8130   9.8138   9.8138
    11.2685  11.2685  11.9502  11.9502  13.5258  13.5258  14.0523  14.0523
    14.9208  14.9208  14.9745  14.9745  15.1754  15.1754  15.2504  15.2504
    17.0162  17.0162  17.5115  17.5115  17.7563  17.7563  18.3169  18.3169
    18.5808  18.5808  18.8518  18.8518  19.6691  19.6691  19.7435  19.7435
    21.1582  21.1582  21.2564  21.2564  21.5510  21.5510  21.6263  21.6263
    22.4402  22.4402  22.5940  22.5940  22.8660  22.8660  22.9464  22.9464
    23.3187  23.3187  23.6347  23.6347  23.7377  23.7377  23.9591  23.9591
    26.2518  26.2518  27.0458  27.0458  27.1647  27.1647  27.3542  27.3542
    27.3883  27.3883  27.8426  27.8426  28.0437  28.0437  28.0677  28.0677
    28.1882  28.1882  28.4775  28.4775  28.7855  28.7855  29.0012  29.0012
    29.3937  29.3937  30.0518  30.0518  30.0928  30.0928  30.4024  30.4024

     occupation numbers 
     1.0000   1.0000   1.0000   1.0000   1.0000   1.0000   1.0000   1.0000
     1.0000   1.0000   1.0000   1.0000   1.0000   1.0000   1.0000   1.0000
     1.0000   1.0000   1.0000   1.0000   1.0000   1.0000   1.0000   1.0000
     1.0000   1.0000   1.0000   1.0000   1.0000   1.0000   1.0000   1.0000
     1.0000   1.0000   1.0000   1.0000   1.0000   1.0000   1.0000   1.0000
     1.0000   1.0000   1.0000   1.0000   1.0000   1.0000   1.0000   1.0000
     1.0000   1.0000   1.0000   1.0000   1.0000   1.0000   1.0000   1.0000
     1.0000   1.0000   1.0000   1.0000   1.0000   1.0000   1.0000   1.0000
     1.0000   1.0000   1.0000   1.0000   1.0000   1.0000   1.0000   1.0000
     1.0000   1.0000   1.0000   1.0000   0.0000   0.0000   0.0000   0.0000
     0.0000   0.0000   0.0000   0.0000   0.0000   0.0000   0.0000   0.0000
     0.0000   0.0000   0.0000   0.0000   0.0000   0.0000   0.0000   0.0000
     0.0000   0.0000   0.0000   0.0000   0.0000   0.0000   0.0000   0.0000
     0.0000   0.0000   0.0000   0.0000   0.0000   0.0000   0.0000   0.0000
     0.0000   0.0000   0.0000   0.0000   0.0000   0.0000   0.0000   0.0000
     0.0000   0.0000   0.0000   0.0000   0.0000   0.0000   0.0000   0.0000
     0.0000   0.0000   0.0000   0.0000   0.0000   0.0000   0.0000   0.0000
     0.0000   0.0000   0.0000   0.0000   0.0000   0.0000   0.0000   0.0000
     0.0000   0.0000   0.0000   0.0000   0.0000   0.0000   0.0000   0.0000
     0.0000   0.0000   0.0000   0.0000   0.0000   0.0000   0.0000   0.0000

          k = 0.0000 0.0000-0.1278 (  8046 PWs)   bands (ev):

   -12.0008 -12.0008 -12.0008 -12.0008 -11.9983 -11.9983 -11.9983 -11.9983
   -11.9909 -11.9909 -11.9909 -11.9909 -11.9714 -11.9714 -11.9714 -11.9714
    -9.0564  -9.0564  -9.0564  -9.0564  -9.0546  -9.0546  -9.0546  -9.0546
    -9.0265  -9.0265  -9.0264  -9.0264  -8.9843  -8.9843  -8.9843  -8.9843
    -8.9333  -8.9333  -8.9333  -8.9333  -8.9116  -8.9116  -8.9116  -8.9116
    -0.7141  -0.7141  -0.7141  -0.7141   0.4764   0.4764   0.4764   0.4764
     6.8777   6.8777   6.8778   6.8778   8.4523   8.4523   8.4524   8.4524
     8.9237   8.9237   8.9238   8.9238   9.3336   9.3336   9.3337   9.3337
     9.7019   9.7019   9.7020   9.7020   9.8134   9.8134   9.8135   9.8135
    11.6243  11.6243  11.6243  11.6243  13.7554  13.7554  13.7554  13.7554
    15.0369  15.0369  15.0369  15.0369  15.1128  15.1128  15.1128  15.1128
    17.2694  17.2694  17.2694  17.2694  18.1215  18.1215  18.1215  18.1215
    18.6416  18.6416  18.6417  18.6417  19.7050  19.7050  19.7050  19.7050
    21.2093  21.2093  21.2093  21.2093  21.8263  21.8263  21.8263  21.8263
    22.4481  22.4481  22.4481  22.4481  22.8706  22.8706  22.8706  22.8706
    23.2309  23.2309  23.2309  23.2309  23.8403  23.8403  23.8403  23.8403
    26.6919  26.6919  26.6919  26.6919  27.4980  27.4980  27.4980  27.4980
    27.7610  27.7610  27.7610  27.7610  27.7752  27.7752  27.7752  27.7752
    28.5084  28.5084  28.5084  28.5084  29.0480  29.0480  29.0480  29.0480
    29.3459  29.3459  29.3459  29.3459  30.3680  30.3680  30.3680  30.3680

     occupation numbers 
     1.0000   1.0000   1.0000   1.0000   1.0000   1.0000   1.0000   1.0000
     1.0000   1.0000   1.0000   1.0000   1.0000   1.0000   1.0000   1.0000
     1.0000   1.0000   1.0000   1.0000   1.0000   1.0000   1.0000   1.0000
     1.0000   1.0000   1.0000   1.0000   1.0000   1.0000   1.0000   1.0000
     1.0000   1.0000   1.0000   1.0000   1.0000   1.0000   1.0000   1.0000
     1.0000   1.0000   1.0000   1.0000   1.0000   1.0000   1.0000   1.0000
     1.0000   1.0000   1.0000   1.0000   1.0000   1.0000   1.0000   1.0000
     1.0000   1.0000   1.0000   1.0000   1.0000   1.0000   1.0000   1.0000
     1.0000   1.0000   1.0000   1.0000   1.0000   1.0000   1.0000   1.0000
     1.0000   1.0000   1.0000   1.0000   0.0000   0.0000   0.0000   0.0000
     0.0000   0.0000   0.0000   0.0000   0.0000   0.0000   0.0000   0.0000
     0.0000   0.0000   0.0000   0.0000   0.0000   0.0000   0.0000   0.0000
     0.0000   0.0000   0.0000   0.0000   0.0000   0.0000   0.0000   0.0000
     0.0000   0.0000   0.0000   0.0000   0.0000   0.0000   0.0000   0.0000
     0.0000   0.0000   0.0000   0.0000   0.0000   0.0000   0.0000   0.0000
     0.0000   0.0000   0.0000   0.0000   0.0000   0.0000   0.0000   0.0000
     0.0000   0.0000   0.0000   0.0000   0.0000   0.0000   0.0000   0.0000
     0.0000   0.0000   0.0000   0.0000   0.0000   0.0000   0.0000   0.0000
     0.0000   0.0000   0.0000   0.0000   0.0000   0.0000   0.0000   0.0000
     0.0000   0.0000   0.0000   0.0000   0.0000   0.0000   0.0000   0.0000

          k = 0.0000 0.1250 0.0000 (  8008 PWs)   bands (ev):

   -11.9973 -11.9973 -11.9972 -11.9972 -11.9949 -11.9949 -11.9944 -11.9944
   -11.9904 -11.9904 -11.9827 -11.9827 -11.9764 -11.9764 -11.9673 -11.9673
    -9.0478  -9.0478  -9.0467  -9.0467  -9.0450  -9.0450  -9.0448  -9.0448
    -9.0241  -9.0241  -9.0162  -9.0162  -8.9847  -8.9847  -8.9771  -8.9771
    -8.9435  -8.9435  -8.9313  -8.9313  -8.9279  -8.9279  -8.9142  -8.9142
    -0.7019  -0.7019  -0.1428  -0.1428   0.0873   0.0873   0.9611   0.9611
     6.4339   6.4339   7.9630   7.9630   8.4825   8.4825   8.4843   8.4843
     8.6976   8.6976   8.8748   8.8748   9.1991   9.1991   9.2913   9.2913
     9.6815   9.6815   9.6832   9.6832   9.7213   9.7213   9.9593   9.9593
    10.5465  10.5465  11.9971  11.9971  12.6336  12.6336  13.0758  13.0758
    14.3480  14.3480  14.5444  14.5444  14.6037  14.6037  15.4837  15.4837
    16.0499  16.0499  16.9968  16.9968  17.8803  17.8803  18.5174  18.5174
    19.1685  19.1685  19.4980  19.4980  20.5025  20.5025  20.7282  20.7282
    21.0442  21.0442  21.3361  21.3361  21.9890  21.9890  22.2557  22.2557
    22.3768  22.3768  22.4105  22.4105  22.6202  22.6202  22.8863  22.8863
    24.1571  24.1571  24.6102  24.6102  25.0111  25.0111  25.1702  25.1702
    25.7682  25.7682  25.7842  25.7842  26.2315  26.2315  26.9390  26.9390
    27.1493  27.1493  27.1643  27.1643  27.7563  27.7563  27.8698  27.8698
    28.0437  28.0437  28.1625  28.1625  28.2144  28.2144  28.2303  28.2303
    28.4662  28.4662  29.0957  29.0957  29.5331  29.5331  29.6798  29.6798

     occupation numbers 
     1.0000   1.0000   1.0000   1.0000   1.0000   1.0000   1.0000   1.0000
     1.0000   1.0000   1.0000   1.0000   1.0000   1.0000   1.0000   1.0000
     1.0000   1.0000   1.0000   1.0000   1.0000   1.0000   1.0000   1.0000
     1.0000   1.0000   1.0000   1.0000   1.0000   1.0000   1.0000   1.0000
     1.0000   1.0000   1.0000   1.0000   1.0000   1.0000   1.0000   1.0000
     1.0000   1.0000   1.0000   1.0000   1.0000   1.0000   1.0000   1.0000
     1.0000   1.0000   1.0000   1.0000   1.0000   1.0000   1.0000   1.0000
     1.0000   1.0000   1.0000   1.0000   1.0000   1.0000   1.0000   1.0000
     1.0000   1.0000   1.0000   1.0000   1.0000   1.0000   1.0000   1.0000
     1.0000   1.0000   1.0023   1.0023   0.2592   0.2592   0.0234   0.0234
    -0.0081  -0.0081   0.0000   0.0000   0.0000   0.0000   0.0000   0.0000
     0.0000   0.0000   0.0000   0.0000   0.0000   0.0000   0.0000   0.0000
     0.0000   0.0000   0.0000   0.0000   0.0000   0.0000   0.0000   0.0000
     0.0000   0.0000   0.0000   0.0000   0.0000   0.0000   0.0000   0.0000
     0.0000   0.0000   0.0000   0.0000   0.0000   0.0000   0.0000   0.0000
     0.0000   0.0000   0.0000   0.0000   0.0000   0.0000   0.0000   0.0000
     0.0000   0.0000   0.0000   0.0000   0.0000   0.0000   0.0000   0.0000
     0.0000   0.0000   0.0000   0.0000   0.0000   0.0000   0.0000   0.0000
     0.0000   0.0000   0.0000   0.0000   0.0000   0.0000   0.0000   0.0000
     0.0000   0.0000   0.0000   0.0000   0.0000   0.0000   0.0000   0.0000

          k = 0.0000 0.1250 0.0320 (  8007 PWs)   bands (ev):

   -11.9973 -11.9973 -11.9971 -11.9971 -11.9950 -11.9950 -11.9944 -11.9944
   -11.9903 -11.9903 -11.9833 -11.9833 -11.9756 -11.9756 -11.9675 -11.9675
    -9.0477  -9.0477  -9.0467  -9.0467  -9.0450  -9.0450  -9.0449  -9.0449
    -9.0239  -9.0239  -9.0165  -9.0165  -8.9843  -8.9843  -8.9773  -8.9773
    -8.9432  -8.9432  -8.9328  -8.9328  -8.9264  -8.9264  -8.9145  -8.9145
    -0.6909  -0.6909  -0.2128  -0.2128   0.1680   0.1680   0.9367   0.9367
     6.4775   6.4775   7.8637   7.8637   8.4823   8.4823   8.4824   8.4824
     8.7323   8.7323   8.8742   8.8742   9.2066   9.2066   9.2900   9.2900
     9.6814   9.6814   9.6829   9.6829   9.7250   9.7250   9.9293   9.9293
    10.6330  10.6330  11.9415  11.9415  12.6722  12.6722  13.1141  13.1141
    14.3297  14.3297  14.4752  14.4752  14.6129  14.6129  15.4385  15.4385
    16.0485  16.0485  16.9564  16.9564  18.0166  18.0166  18.5468  18.5468
    19.1666  19.1666  19.5151  19.5151  20.4226  20.4226  20.7753  20.7753
    21.1090  21.1090  21.2947  21.2947  21.7751  21.7751  22.2888  22.2888
    22.4126  22.4126  22.4172  22.4172  22.8859  22.8859  22.9151  22.9151
    24.0415  24.0415  24.3618  24.3618  24.4749  24.4749  25.3931  25.3931
    25.9037  25.9037  26.1225  26.1225  26.3941  26.3941  26.9613  26.9613
    27.0632  27.0632  27.1803  27.1803  27.5621  27.5621  27.9152  27.9152
    27.9344  27.9344  28.0280  28.0280  28.2381  28.2381  28.4880  28.4880
    28.7254  28.7254  29.0757  29.0757  29.4257  29.4257  29.6509  29.6509

     occupation numbers 
     1.0000   1.0000   1.0000   1.0000   1.0000   1.0000   1.0000   1.0000
     1.0000   1.0000   1.0000   1.0000   1.0000   1.0000   1.0000   1.0000
     1.0000   1.0000   1.0000   1.0000   1.0000   1.0000   1.0000   1.0000
     1.0000   1.0000   1.0000   1.0000   1.0000   1.0000   1.0000   1.0000
     1.0000   1.0000   1.0000   1.0000   1.0000   1.0000   1.0000   1.0000
     1.0000   1.0000   1.0000   1.0000   1.0000   1.0000   1.0000   1.0000
     1.0000   1.0000   1.0000   1.0000   1.0000   1.0000   1.0000   1.0000
     1.0000   1.0000   1.0000   1.0000   1.0000   1.0000   1.0000   1.0000
     1.0000   1.0000   1.0000   1.0000   1.0000   1.0000   1.0000   1.0000
     1.0000   1.0000   1.0013   1.0013   0.2405   0.2405   0.0117   0.0117
    -0.0037  -0.0037   0.0000   0.0000   0.0000   0.0000   0.0000   0.0000
     0.0000   0.0000   0.0000   0.0000   0.0000   0.0000   0.0000   0.0000
     0.0000   0.0000   0.0000   0.0000   0.0000   0.0000   0.0000   0.0000
     0.0000   0.0000   0.0000   0.0000   0.0000   0.0000   0.0000   0.0000
     0.0000   0.0000   0.0000   0.0000   0.0000   0.0000   0.0000   0.0000
     0.0000   0.0000   0.0000   0.0000   0.0000   0.0000   0.0000   0.0000
     0.0000   0.0000   0.0000   0.0000   0.0000   0.0000   0.0000   0.0000
     0.0000   0.0000   0.0000   0.0000   0.0000   0.0000   0.0000   0.0000
     0.0000   0.0000   0.0000   0.0000   0.0000   0.0000   0.0000   0.0000
     0.0000   0.0000   0.0000   0.0000   0.0000   0.0000   0.0000   0.0000

          k = 0.0000 0.1250 0.0639 (  7991 PWs)   bands (ev):

   -11.9972 -11.9972 -11.9969 -11.9969 -11.9949 -11.9949 -11.9944 -11.9944
   -11.9898 -11.9898 -11.9847 -11.9847 -11.9738 -11.9738 -11.9681 -11.9681
    -9.0475  -9.0475  -9.0468  -9.0468  -9.0449  -9.0449  -9.0449  -9.0449
    -9.0232  -9.0232  -9.0175  -9.0175  -8.9832  -8.9832  -8.9780  -8.9780
    -8.9423  -8.9423  -8.9353  -8.9353  -8.9237  -8.9237  -8.9153  -8.9153
    -0.6582  -0.6582  -0.3276  -0.3276   0.3137   0.3137   0.8662   0.8662
     6.6044   6.6044   7.6284   7.6284   8.4805   8.4805   8.4819   8.4819
     8.7900   8.7900   8.8719   8.8719   9.2253   9.2253   9.2857   9.2857
     9.6814   9.6814   9.6824   9.6824   9.7362   9.7362   9.8728   9.8728
    10.8410  10.8410  11.7962  11.7962  12.7850  12.7850  13.1933  13.1933
    14.2693  14.2693  14.3101  14.3101  14.6553  14.6553  15.2793  15.2793
    16.1260  16.1260  16.8439  16.8439  18.3206  18.3206  18.6186  18.6186
    19.1717  19.1717  19.5509  19.5509  20.2759  20.2759  20.8287  20.8287
    21.2069  21.2069  21.2288  21.2288  21.5797  21.5797  22.2992  22.2992
    22.4470  22.4470  22.5000  22.5000  23.0062  23.0062  23.3221  23.3221
    23.6342  23.6342  23.8228  23.8228  24.1705  24.1705  25.3211  25.3211
    26.1827  26.1827  26.4245  26.4245  26.7298  26.7298  27.0484  27.0484
    27.0625  27.0625  27.2326  27.2326  27.5414  27.5414  27.6017  27.6017
    27.8207  27.8207  28.0107  28.0107  28.4627  28.4627  28.7741  28.7741
    28.9703  28.9703  29.0694  29.0694  29.2824  29.2824  29.5930  29.5930

     occupation numbers 
     1.0000   1.0000   1.0000   1.0000   1.0000   1.0000   1.0000   1.0000
     1.0000   1.0000   1.0000   1.0000   1.0000   1.0000   1.0000   1.0000
     1.0000   1.0000   1.0000   1.0000   1.0000   1.0000   1.0000   1.0000
     1.0000   1.0000   1.0000   1.0000   1.0000   1.0000   1.0000   1.0000
     1.0000   1.0000   1.0000   1.0000   1.0000   1.0000   1.0000   1.0000
     1.0000   1.0000   1.0000   1.0000   1.0000   1.0000   1.0000   1.0000
     1.0000   1.0000   1.0000   1.0000   1.0000   1.0000   1.0000   1.0000
     1.0000   1.0000   1.0000   1.0000   1.0000   1.0000   1.0000   1.0000
     1.0000   1.0000   1.0000   1.0000   1.0000   1.0000   1.0000   1.0000
     1.0000   1.0000   1.0000   1.0000   0.1853   0.1853  -0.0020  -0.0020
     0.0000   0.0000   0.0000   0.0000   0.0000   0.0000   0.0000   0.0000
     0.0000   0.0000   0.0000   0.0000   0.0000   0.0000   0.0000   0.0000
     0.0000   0.0000   0.0000   0.0000   0.0000   0.0000   0.0000   0.0000
     0.0000   0.0000   0.0000   0.0000   0.0000   0.0000   0.0000   0.0000
     0.0000   0.0000   0.0000   0.0000   0.0000   0.0000   0.0000   0.0000
     0.0000   0.0000   0.0000   0.0000   0.0000   0.0000   0.0000   0.0000
     0.0000   0.0000   0.0000   0.0000   0.0000   0.0000   0.0000   0.0000
     0.0000   0.0000   0.0000   0.0000   0.0000   0.0000   0.0000   0.0000
     0.0000   0.0000   0.0000   0.0000   0.0000   0.0000   0.0000   0.0000
     0.0000   0.0000   0.0000   0.0000   0.0000   0.0000   0.0000   0.0000

          k = 0.0000 0.1250 0.0959 (  8004 PWs)   bands (ev):

   -11.9971 -11.9971 -11.9970 -11.9970 -11.9948 -11.9948 -11.9946 -11.9946
   -11.9890 -11.9890 -11.9864 -11.9864 -11.9722 -11.9722 -11.9692 -11.9692
    -9.0474  -9.0474  -9.0470  -9.0470  -9.0450  -9.0450  -9.0449  -9.0449
    -9.0221  -9.0221  -9.0191  -9.0191  -8.9819  -8.9819  -8.9791  -8.9791
    -8.9412  -8.9412  -8.9375  -8.9375  -8.9211  -8.9211  -8.9169  -8.9169
    -0.6041  -0.6041  -0.4363  -0.4363   0.4702   0.4702   0.7578   0.7578
     6.8033   6.8033   7.3426   7.3426   8.4802   8.4802   8.4812   8.4812
     8.8313   8.8313   8.8664   8.8664   9.2468   9.2468   9.2778   9.2778
     9.6815   9.6815   9.6819   9.6819   9.7552   9.7552   9.8220   9.8220
    11.0975  11.0975  11.5945  11.5945  12.9559  12.9559  13.2275  13.2275
    14.1523  14.1523  14.1791  14.1791  14.7459  14.7459  15.0708  15.0708
    16.2905  16.2905  16.6797  16.6797  18.6021  18.6021  18.6929  18.6929
    19.2281  19.2281  19.5306  19.5306  20.2165  20.2165  20.6168  20.6168
    21.3339  21.3339  21.3727  21.3727  21.5421  21.5421  22.1657  22.1657
    22.5021  22.5021  22.6725  22.6725  22.9941  22.9941  23.2663  23.2663
    23.3209  23.3209  23.8095  23.8095  24.0542  24.0542  25.0191  25.0191
    26.4630  26.4630  26.4646  26.4646  26.9103  26.9103  27.0369  27.0369
    27.2447  27.2447  27.3829  27.3829  27.4621  27.4621  27.4989  27.4989
    27.7576  27.7576  28.1401  28.1401  28.5703  28.5703  28.9507  28.9507
    28.9949  28.9949  29.0871  29.0871  29.4408  29.4408  29.5505  29.5505

     occupation numbers 
     1.0000   1.0000   1.0000   1.0000   1.0000   1.0000   1.0000   1.0000
     1.0000   1.0000   1.0000   1.0000   1.0000   1.0000   1.0000   1.0000
     1.0000   1.0000   1.0000   1.0000   1.0000   1.0000   1.0000   1.0000
     1.0000   1.0000   1.0000   1.0000   1.0000   1.0000   1.0000   1.0000
     1.0000   1.0000   1.0000   1.0000   1.0000   1.0000   1.0000   1.0000
     1.0000   1.0000   1.0000   1.0000   1.0000   1.0000   1.0000   1.0000
     1.0000   1.0000   1.0000   1.0000   1.0000   1.0000   1.0000   1.0000
     1.0000   1.0000   1.0000   1.0000   1.0000   1.0000   1.0000   1.0000
     1.0000   1.0000   1.0000   1.0000   1.0000   1.0000   1.0000   1.0000
     1.0000   1.0000   1.0000   1.0000   0.1094   0.1094   0.0057   0.0057
     0.0000   0.0000   0.0000   0.0000   0.0000   0.0000   0.0000   0.0000
     0.0000   0.0000   0.0000   0.0000   0.0000   0.0000   0.0000   0.0000
     0.0000   0.0000   0.0000   0.0000   0.0000   0.0000   0.0000   0.0000
     0.0000   0.0000   0.0000   0.0000   0.0000   0.0000   0.0000   0.0000
     0.0000   0.0000   0.0000   0.0000   0.0000   0.0000   0.0000   0.0000
     0.0000   0.0000   0.0000   0.0000   0.0000   0.0000   0.0000   0.0000
     0.0000   0.0000   0.0000   0.0000   0.0000   0.0000   0.0000   0.0000
     0.0000   0.0000   0.0000   0.0000   0.0000   0.0000   0.0000   0.0000
     0.0000   0.0000   0.0000   0.0000   0.0000   0.0000   0.0000   0.0000
     0.0000   0.0000   0.0000   0.0000   0.0000   0.0000   0.0000   0.0000

          k = 0.0000 0.1250-0.1278 (  8020 PWs)   bands (ev):

   -11.9971 -11.9971 -11.9971 -11.9971 -11.9948 -11.9948 -11.9947 -11.9947
   -11.9880 -11.9880 -11.9880 -11.9880 -11.9706 -11.9706 -11.9706 -11.9706
    -9.0473  -9.0473  -9.0473  -9.0473  -9.0450  -9.0450  -9.0450  -9.0450
    -9.0207  -9.0207  -9.0207  -9.0207  -8.9805  -8.9805  -8.9805  -8.9805
    -8.9396  -8.9396  -8.9396  -8.9396  -8.9188  -8.9188  -8.9188  -8.9188
    -0.5296  -0.5296  -0.5296  -0.5296   0.6220   0.6220   0.6220   0.6220
     7.0569   7.0569   7.0569   7.0569   8.4805   8.4805   8.4806   8.4806
     8.8545   8.8545   8.8546   8.8546   9.2649   9.2649   9.2650   9.2650
     9.6816   9.6816   9.6817   9.6817   9.7832   9.7832   9.7832   9.7832
    11.3567  11.3567  11.3567  11.3567  13.1353  13.1353  13.1353  13.1353
    14.1122  14.1122  14.1122  14.1122  14.8858  14.8858  14.8858  14.8858
    16.4868  16.4868  16.4869  16.4869  18.7158  18.7158  18.7158  18.7158
    19.3834  19.3834  19.3834  19.3834  20.3532  20.3532  20.3532  20.3532
    21.4047  21.4047  21.4047  21.4047  21.8394  21.8394  21.8394  21.8394
    22.6075  22.6075  22.6075  22.6075  23.0460  23.0460  23.0460  23.0460
    23.4965  23.4965  23.4965  23.4965  24.5532  24.5532  24.5533  24.5533
    26.5472  26.5472  26.5472  26.5472  26.9434  26.9434  26.9434  26.9434
    27.3792  27.3792  27.3792  27.3792  27.5156  27.5156  27.5156  27.5156
    27.8614  27.8614  27.8614  27.8614  28.8288  28.8288  28.8288  28.8288
    29.1980  29.1980  29.1980  29.1980  29.4521  29.4521  29.4521  29.4521

     occupation numbers 
     1.0000   1.0000   1.0000   1.0000   1.0000   1.0000   1.0000   1.0000
     1.0000   1.0000   1.0000   1.0000   1.0000   1.0000   1.0000   1.0000
     1.0000   1.0000   1.0000   1.0000   1.0000   1.0000   1.0000   1.0000
     1.0000   1.0000   1.0000   1.0000   1.0000   1.0000   1.0000   1.0000
     1.0000   1.0000   1.0000   1.0000   1.0000   1.0000   1.0000   1.0000
     1.0000   1.0000   1.0000   1.0000   1.0000   1.0000   1.0000   1.0000
     1.0000   1.0000   1.0000   1.0000   1.0000   1.0000   1.0000   1.0000
     1.0000   1.0000   1.0000   1.0000   1.0000   1.0000   1.0000   1.0000
     1.0000   1.0000   1.0000   1.0000   1.0000   1.0000   1.0000   1.0000
     1.0000   1.0000   1.0000   1.0000   0.0524   0.0524   0.0342   0.0342
     0.0000   0.0000   0.0000   0.0000   0.0000   0.0000   0.0000   0.0000
     0.0000   0.0000   0.0000   0.0000   0.0000   0.0000   0.0000   0.0000
     0.0000   0.0000   0.0000   0.0000   0.0000   0.0000   0.0000   0.0000
     0.0000   0.0000   0.0000   0.0000   0.0000   0.0000   0.0000   0.0000
     0.0000   0.0000   0.0000   0.0000   0.0000   0.0000   0.0000   0.0000
     0.0000   0.0000   0.0000   0.0000   0.0000   0.0000   0.0000   0.0000
     0.0000   0.0000   0.0000   0.0000   0.0000   0.0000   0.0000   0.0000
     0.0000   0.0000   0.0000   0.0000   0.0000   0.0000   0.0000   0.0000
     0.0000   0.0000   0.0000   0.0000   0.0000   0.0000   0.0000   0.0000
     0.0000   0.0000   0.0000   0.0000   0.0000   0.0000   0.0000   0.0000

          k = 0.0000 0.2500 0.0000 (  8042 PWs)   bands (ev):

   -11.9971 -11.9971 -11.9931 -11.9931 -11.9919 -11.9919 -11.9897 -11.9897
   -11.9765 -11.9765 -11.9731 -11.9731 -11.9689 -11.9689 -11.9638 -11.9638
    -9.0388  -9.0388  -9.0367  -9.0367  -9.0305  -9.0305  -9.0288  -9.0288
    -8.9968  -8.9968  -8.9915  -8.9915  -8.9817  -8.9817  -8.9717  -8.9717
    -8.9457  -8.9457  -8.9433  -8.9433  -8.9374  -8.9374  -8.9292  -8.9292
    -0.1630  -0.1630   0.3538   0.3538   0.5488   0.5488   1.3042   1.3042
     7.0557   7.0557   7.9681   7.9681   8.2348   8.2348   8.2837   8.2837
     8.5393   8.5393   8.7173   8.7173   9.0772   9.0772   9.1469   9.1469
     9.4768   9.4768   9.4795   9.4795   9.6339   9.6339   9.6352   9.6352
    10.6667  10.6667  11.0292  11.0292  11.1699  11.1699  11.6224  11.6224
    12.4408  12.4408  14.5582  14.5582  15.1956  15.1956  15.8866  15.8866
    16.3061  16.3061  16.5256  16.5256  17.1416  17.1416  18.6458  18.6458
    19.0192  19.0192  19.5842  19.5842  19.7375  19.7375  20.3295  20.3295
    21.1311  21.1311  21.4617  21.4617  22.1715  22.1715  22.8281  22.8281
    23.7523  23.7523  23.8506  23.8506  24.5415  24.5415  24.6851  24.6851
    24.9258  24.9258  24.9327  24.9327  25.1055  25.1055  25.3614  25.3614
    25.5182  25.5182  25.6629  25.6629  25.9331  25.9331  26.0056  26.0056
    26.1511  26.1511  26.2441  26.2441  26.3531  26.3531  26.4336  26.4336
    27.0951  27.0951  27.2962  27.2962  27.3398  27.3398  28.8359  28.8359
    29.1197  29.1197  29.4504  29.4504  29.5461  29.5461  29.9424  29.9424

     occupation numbers 
     1.0000   1.0000   1.0000   1.0000   1.0000   1.0000   1.0000   1.0000
     1.0000   1.0000   1.0000   1.0000   1.0000   1.0000   1.0000   1.0000
     1.0000   1.0000   1.0000   1.0000   1.0000   1.0000   1.0000   1.0000
     1.0000   1.0000   1.0000   1.0000   1.0000   1.0000   1.0000   1.0000
     1.0000   1.0000   1.0000   1.0000   1.0000   1.0000   1.0000   1.0000
     1.0000   1.0000   1.0000   1.0000   1.0000   1.0000   1.0000   1.0000
     1.0000   1.0000   1.0000   1.0000   1.0000   1.0000   1.0000   1.0000
     1.0000   1.0000   1.0000   1.0000   1.0000   1.0000   1.0000   1.0000
     1.0000   1.0000   1.0000   1.0000   1.0000   1.0000   1.0000   1.0000
     1.0000   1.0000   1.0000   1.0000   1.0691   1.0691   1.0057   1.0057
     0.0109   0.0109   0.0000   0.0000   0.0000   0.0000   0.0000   0.0000
     0.0000   0.0000   0.0000   0.0000   0.0000   0.0000   0.0000   0.0000
     0.0000   0.0000   0.0000   0.0000   0.0000   0.0000   0.0000   0.0000
     0.0000   0.0000   0.0000   0.0000   0.0000   0.0000   0.0000   0.0000
     0.0000   0.0000   0.0000   0.0000   0.0000   0.0000   0.0000   0.0000
     0.0000   0.0000   0.0000   0.0000   0.0000   0.0000   0.0000   0.0000
     0.0000   0.0000   0.0000   0.0000   0.0000   0.0000   0.0000   0.0000
     0.0000   0.0000   0.0000   0.0000   0.0000   0.0000   0.0000   0.0000
     0.0000   0.0000   0.0000   0.0000   0.0000   0.0000   0.0000   0.0000
     0.0000   0.0000   0.0000   0.0000   0.0000   0.0000   0.0000   0.0000

          k = 0.0000 0.2500 0.0320 (  8032 PWs)   bands (ev):

   -11.9969 -11.9969 -11.9934 -11.9934 -11.9916 -11.9916 -11.9898 -11.9898
   -11.9763 -11.9763 -11.9733 -11.9733 -11.9686 -11.9686 -11.9640 -11.9640
    -9.0386  -9.0386  -9.0367  -9.0367  -9.0304  -9.0304  -9.0289  -9.0289
    -8.9965  -8.9965  -8.9919  -8.9919  -8.9812  -8.9812  -8.9721  -8.9721
    -8.9455  -8.9455  -8.9431  -8.9431  -8.9372  -8.9372  -8.9295  -8.9295
    -0.1528  -0.1528   0.2882   0.2882   0.6228   0.6228   1.2841   1.2841
     7.0862   7.0862   7.9299   7.9299   8.2195   8.2195   8.2786   8.2786
     8.5648   8.5648   8.7162   8.7162   9.0817   9.0817   9.1460   9.1460
     9.4764   9.4764   9.4786   9.4786   9.6381   9.6381   9.6401   9.6401
    10.6332  10.6332  11.0475  11.0475  11.0888  11.0888  11.7043  11.7043
    12.5063  12.5063  14.4806  14.4806  15.2123  15.2123  15.8682  15.8682
    16.3426  16.3426  16.4723  16.4723  17.1435  17.1435  18.5664  18.5664
    19.0703  19.0703  19.6839  19.6839  19.7417  19.7417  20.3661  20.3661
    21.0452  21.0452  21.5922  21.5922  22.2363  22.2363  22.8571  22.8571
    23.4777  23.4777  23.8042  23.8042  24.5163  24.5163  24.5752  24.5752
    24.8334  24.8334  24.9261  24.9261  25.1615  25.1615  25.3909  25.3909
    25.5694  25.5694  25.6663  25.6663  25.8388  25.8388  25.9737  25.9737
    26.2078  26.2078  26.3105  26.3105  26.4247  26.4247  26.4622  26.4622
    26.9918  26.9918  27.3641  27.3641  27.7757  27.7757  28.7405  28.7405
    29.1442  29.1442  29.4809  29.4809  29.5989  29.5989  29.8205  29.8205

     occupation numbers 
     1.0000   1.0000   1.0000   1.0000   1.0000   1.0000   1.0000   1.0000
     1.0000   1.0000   1.0000   1.0000   1.0000   1.0000   1.0000   1.0000
     1.0000   1.0000   1.0000   1.0000   1.0000   1.0000   1.0000   1.0000
     1.0000   1.0000   1.0000   1.0000   1.0000   1.0000   1.0000   1.0000
     1.0000   1.0000   1.0000   1.0000   1.0000   1.0000   1.0000   1.0000
     1.0000   1.0000   1.0000   1.0000   1.0000   1.0000   1.0000   1.0000
     1.0000   1.0000   1.0000   1.0000   1.0000   1.0000   1.0000   1.0000
     1.0000   1.0000   1.0000   1.0000   1.0000   1.0000   1.0000   1.0000
     1.0000   1.0000   1.0000   1.0000   1.0000   1.0000   1.0000   1.0000
     1.0000   1.0000   1.0000   1.0000   1.0706   1.0706   0.9833   0.9833
     0.0005   0.0005   0.0000   0.0000   0.0000   0.0000   0.0000   0.0000
     0.0000   0.0000   0.0000   0.0000   0.0000   0.0000   0.0000   0.0000
     0.0000   0.0000   0.0000   0.0000   0.0000   0.0000   0.0000   0.0000
     0.0000   0.0000   0.0000   0.0000   0.0000   0.0000   0.0000   0.0000
     0.0000   0.0000   0.0000   0.0000   0.0000   0.0000   0.0000   0.0000
     0.0000   0.0000   0.0000   0.0000   0.0000   0.0000   0.0000   0.0000
     0.0000   0.0000   0.0000   0.0000   0.0000   0.0000   0.0000   0.0000
     0.0000   0.0000   0.0000   0.0000   0.0000   0.0000   0.0000   0.0000
     0.0000   0.0000   0.0000   0.0000   0.0000   0.0000   0.0000   0.0000
     0.0000   0.0000   0.0000   0.0000   0.0000   0.0000   0.0000   0.0000

          k = 0.0000 0.2500 0.0639 (  8030 PWs)   bands (ev):

   -11.9965 -11.9965 -11.9939 -11.9939 -11.9913 -11.9913 -11.9899 -11.9899
   -11.9760 -11.9760 -11.9739 -11.9739 -11.9678 -11.9678 -11.9644 -11.9644
    -9.0383  -9.0383  -9.0369  -9.0369  -9.0303  -9.0303  -9.0290  -9.0290
    -8.9961  -8.9961  -8.9927  -8.9927  -8.9802  -8.9802  -8.9734  -8.9734
    -8.9451  -8.9451  -8.9429  -8.9429  -8.9364  -8.9364  -8.9304  -8.9304
    -0.1224  -0.1224   0.1824   0.1824   0.7526   0.7526   1.2259   1.2259
     7.1743   7.1743   7.8169   7.8169   8.2049   8.2049   8.2646   8.2646
     8.6135   8.6135   8.7120   8.7120   9.0937   9.0937   9.1427   9.1427
     9.4753   9.4753   9.4768   9.4768   9.6489   9.6489   9.6520   9.6520
    10.5793  10.5793  10.8497  10.8497  11.2227  11.2227  11.7501  11.7501
    12.7353  12.7353  14.2584  14.2584  15.2628  15.2628  15.7794  15.7794
    16.4148  16.4148  16.4273  16.4273  17.1706  17.1706  18.2457  18.2457
    19.4127  19.4127  19.7540  19.7540  19.7892  19.7892  20.5177  20.5177
    20.8413  20.8413  21.9484  21.9484  22.2496  22.2496  22.9077  22.9077
    23.1386  23.1386  23.6737  23.6737  24.2631  24.2631  24.3105  24.3105
    24.7421  24.7421  24.7719  24.7719  25.2021  25.2021  25.3452  25.3452
    25.5709  25.5709  25.6490  25.6490  25.8357  25.8357  26.0667  26.0667
    26.3520  26.3520  26.4441  26.4441  26.6246  26.6246  26.6840  26.6840
    26.9659  26.9659  27.4610  27.4610  28.5456  28.5456  28.6093  28.6093
    29.0722  29.0722  29.3661  29.3661  29.6356  29.6356  29.7295  29.7295

     occupation numbers 
     1.0000   1.0000   1.0000   1.0000   1.0000   1.0000   1.0000   1.0000
     1.0000   1.0000   1.0000   1.0000   1.0000   1.0000   1.0000   1.0000
     1.0000   1.0000   1.0000   1.0000   1.0000   1.0000   1.0000   1.0000
     1.0000   1.0000   1.0000   1.0000   1.0000   1.0000   1.0000   1.0000
     1.0000   1.0000   1.0000   1.0000   1.0000   1.0000   1.0000   1.0000
     1.0000   1.0000   1.0000   1.0000   1.0000   1.0000   1.0000   1.0000
     1.0000   1.0000   1.0000   1.0000   1.0000   1.0000   1.0000   1.0000
     1.0000   1.0000   1.0000   1.0000   1.0000   1.0000   1.0000   1.0000
     1.0000   1.0000   1.0000   1.0000   1.0000   1.0000   1.0000   1.0000
     1.0000   1.0000   1.0000   1.0000   1.0566   1.0566   0.9592   0.9592
     0.0000   0.0000   0.0000   0.0000   0.0000   0.0000   0.0000   0.0000
     0.0000   0.0000   0.0000   0.0000   0.0000   0.0000   0.0000   0.0000
     0.0000   0.0000   0.0000   0.0000   0.0000   0.0000   0.0000   0.0000
     0.0000   0.0000   0.0000   0.0000   0.0000   0.0000   0.0000   0.0000
     0.0000   0.0000   0.0000   0.0000   0.0000   0.0000   0.0000   0.0000
     0.0000   0.0000   0.0000   0.0000   0.0000   0.0000   0.0000   0.0000
     0.0000   0.0000   0.0000   0.0000   0.0000   0.0000   0.0000   0.0000
     0.0000   0.0000   0.0000   0.0000   0.0000   0.0000   0.0000   0.0000
     0.0000   0.0000   0.0000   0.0000   0.0000   0.0000   0.0000   0.0000
     0.0000   0.0000   0.0000   0.0000   0.0000   0.0000   0.0000   0.0000

          k = 0.0000 0.2500 0.0959 (  8034 PWs)   bands (ev):

   -11.9960 -11.9960 -11.9946 -11.9946 -11.9908 -11.9908 -11.9902 -11.9902
   -11.9757 -11.9757 -11.9746 -11.9746 -11.9669 -11.9669 -11.9651 -11.9651
    -9.0380  -9.0380  -9.0372  -9.0372  -9.0299  -9.0299  -9.0293  -9.0293
    -8.9955  -8.9955  -8.9937  -8.9937  -8.9787  -8.9787  -8.9751  -8.9751
    -8.9443  -8.9443  -8.9431  -8.9431  -8.9352  -8.9352  -8.9317  -8.9317
    -0.0723  -0.0723   0.0824   0.0824   0.8894   0.8894   1.1352   1.1352
     7.3097   7.3097   7.6546   7.6546   8.2090   8.2090   8.2451   8.2451
     8.6559   8.6559   8.7027   8.7027   9.1094   9.1094   9.1358   9.1358
     9.4744   9.4744   9.4750   9.4750   9.6611   9.6611   9.6637   9.6637
    10.5560  10.5560  10.6879  10.6879  11.3828  11.3828  11.6791  11.6791
    13.1000  13.1000  13.9218  13.9218  15.3484  15.3484  15.6245  15.6245
    16.4359  16.4359  16.4909  16.4909  17.2842  17.2842  17.8673  17.8673
    19.7731  19.7731  19.8054  19.8054  19.8665  19.8665  20.5786  20.5786
    20.8245  20.8245  21.8434  21.8434  22.4564  22.4564  23.0246  23.0246
    23.2139  23.2139  23.4833  23.4833  23.7798  23.7798  23.9014  23.9014
    24.6921  24.6921  24.7341  24.7341  25.2321  25.2321  25.2999  25.2999
    25.5327  25.5327  25.5827  25.5827  25.9247  25.9247  26.0635  26.0635
    26.5008  26.5008  26.6346  26.6346  26.7360  26.7360  26.8283  26.8283
    27.2964  27.2964  27.6536  27.6536  28.5890  28.5890  28.7951  28.7951
    29.0482  29.0482  29.1070  29.1070  29.3913  29.3913  29.8331  29.8331

     occupation numbers 
     1.0000   1.0000   1.0000   1.0000   1.0000   1.0000   1.0000   1.0000
     1.0000   1.0000   1.0000   1.0000   1.0000   1.0000   1.0000   1.0000
     1.0000   1.0000   1.0000   1.0000   1.0000   1.0000   1.0000   1.0000
     1.0000   1.0000   1.0000   1.0000   1.0000   1.0000   1.0000   1.0000
     1.0000   1.0000   1.0000   1.0000   1.0000   1.0000   1.0000   1.0000
     1.0000   1.0000   1.0000   1.0000   1.0000   1.0000   1.0000   1.0000
     1.0000   1.0000   1.0000   1.0000   1.0000   1.0000   1.0000   1.0000
     1.0000   1.0000   1.0000   1.0000   1.0000   1.0000   1.0000   1.0000
     1.0000   1.0000   1.0000   1.0000   1.0000   1.0000   1.0000   1.0000
     1.0000   1.0000   1.0000   1.0000   1.0307   1.0307   0.9657   0.9657
     0.0000   0.0000   0.0000   0.0000   0.0000   0.0000   0.0000   0.0000
     0.0000   0.0000   0.0000   0.0000   0.0000   0.0000   0.0000   0.0000
     0.0000   0.0000   0.0000   0.0000   0.0000   0.0000   0.0000   0.0000
     0.0000   0.0000   0.0000   0.0000   0.0000   0.0000   0.0000   0.0000
     0.0000   0.0000   0.0000   0.0000   0.0000   0.0000   0.0000   0.0000
     0.0000   0.0000   0.0000   0.0000   0.0000   0.0000   0.0000   0.0000
     0.0000   0.0000   0.0000   0.0000   0.0000   0.0000   0.0000   0.0000
     0.0000   0.0000   0.0000   0.0000   0.0000   0.0000   0.0000   0.0000
     0.0000   0.0000   0.0000   0.0000   0.0000   0.0000   0.0000   0.0000
     0.0000   0.0000   0.0000   0.0000   0.0000   0.0000   0.0000   0.0000

          k = 0.0000 0.2500-0.1278 (  8024 PWs)   bands (ev):

   -11.9953 -11.9953 -11.9953 -11.9953 -11.9904 -11.9904 -11.9904 -11.9904
   -11.9751 -11.9751 -11.9751 -11.9751 -11.9659 -11.9659 -11.9659 -11.9659
    -9.0375  -9.0375  -9.0375  -9.0375  -9.0296  -9.0296  -9.0296  -9.0296
    -8.9946  -8.9946  -8.9946  -8.9946  -8.9769  -8.9769  -8.9769  -8.9769
    -8.9436  -8.9436  -8.9436  -8.9436  -8.9334  -8.9334  -8.9334  -8.9334
    -0.0035  -0.0035  -0.0035  -0.0035   1.0201   1.0201   1.0201   1.0201
     7.4766   7.4766   7.4767   7.4767   8.2247   8.2247   8.2248   8.2248
     8.6851   8.6851   8.6852   8.6852   9.1244   9.1244   9.1245   9.1245
     9.4741   9.4741   9.4742   9.4742   9.6675   9.6675   9.6676   9.6676
    10.5887  10.5887  10.5887  10.5887  11.5433  11.5433  11.5433  11.5433
    13.5172  13.5172  13.5172  13.5172  15.4705  15.4705  15.4705  15.4705
    16.4834  16.4834  16.4834  16.4834  17.5272  17.5272  17.5272  17.5272
    19.7952  19.7952  19.7952  19.7952  20.2607  20.2607  20.2607  20.2607
    21.2885  21.2885  21.2885  21.2885  23.0217  23.0217  23.0217  23.0217
    23.2700  23.2700  23.2700  23.2700  23.5846  23.5846  23.5846  23.5846
    24.7049  24.7049  24.7049  24.7049  25.2638  25.2638  25.2638  25.2638
    25.5372  25.5372  25.5373  25.5373  26.0087  26.0087  26.0088  26.0088
    26.6058  26.6058  26.6058  26.6058  26.8194  26.8194  26.8194  26.8194
    27.7124  27.7124  27.7124  27.7124  28.6751  28.6751  28.6751  28.6751
    28.7627  28.7627  28.7627  28.7627  29.9826  29.9826  29.9826  29.9826

     occupation numbers 
     1.0000   1.0000   1.0000   1.0000   1.0000   1.0000   1.0000   1.0000
     1.0000   1.0000   1.0000   1.0000   1.0000   1.0000   1.0000   1.0000
     1.0000   1.0000   1.0000   1.0000   1.0000   1.0000   1.0000   1.0000
     1.0000   1.0000   1.0000   1.0000   1.0000   1.0000   1.0000   1.0000
     1.0000   1.0000   1.0000   1.0000   1.0000   1.0000   1.0000   1.0000
[...]

     occupation numbers 
     1.0000   1.0000   1.0000   1.0000   1.0000   1.0000   1.0000   1.0000
     1.0000   1.0000   1.0000   1.0000   1.0000   1.0000   1.0000   1.0000
     1.0000   1.0000   1.0000   1.0000   1.0000   1.0000   1.0000   1.0000
     1.0000   1.0000   1.0000   1.0000   1.0000   1.0000   1.0000   1.0000
     1.0000   1.0000   1.0000   1.0000   1.0000   1.0000   1.0000   1.0000
     1.0000   1.0000   1.0000   1.0000   1.0000   1.0000   1.0000   1.0000
     1.0000   1.0000   1.0000   1.0000   1.0000   1.0000   1.0000   1.0000
     1.0000   1.0000   1.0000   1.0000   1.0000   1.0000   1.0000   1.0000
     1.0000   1.0000   1.0000   1.0000   1.0000   1.0000   1.0000   1.0000
     1.0000   1.0000   1.0000   1.0000   1.0000   1.0000   1.0000   1.0000
     0.9373   0.9373   0.7114   0.7114   0.0000   0.0000   0.0000   0.0000
     0.0000   0.0000   0.0000   0.0000   0.0000   0.0000   0.0000   0.0000
     0.0000   0.0000   0.0000   0.0000   0.0000   0.0000   0.0000   0.0000
     0.0000   0.0000   0.0000   0.0000   0.0000   0.0000   0.0000   0.0000
     0.0000   0.0000   0.0000   0.0000   0.0000   0.0000   0.0000   0.0000
     0.0000   0.0000   0.0000   0.0000   0.0000   0.0000   0.0000   0.0000
     0.0000   0.0000   0.0000   0.0000   0.0000   0.0000   0.0000   0.0000
     0.0000   0.0000   0.0000   0.0000   0.0000   0.0000   0.0000   0.0000
     0.0000   0.0000   0.0000   0.0000   0.0000   0.0000   0.0000   0.0000
     0.0000   0.0000   0.0000   0.0000   0.0000   0.0000   0.0000   0.0000

          k =-0.5000-0.5000 0.0000 (  8040 PWs)   bands (ev):

   -11.9805 -11.9805 -11.9805 -11.9805 -11.9663 -11.9663 -11.9663 -11.9663
   -11.9489 -11.9489 -11.9489 -11.9489 -11.9480 -11.9480 -11.9480 -11.9480
    -9.0364  -9.0364  -9.0364  -9.0364  -9.0221  -9.0221  -9.0221  -9.0221
    -8.9801  -8.9801  -8.9801  -8.9801  -8.9331  -8.9331  -8.9331  -8.9331
    -8.8865  -8.8865  -8.8865  -8.8865  -8.8860  -8.8860  -8.8860  -8.8860
     2.4051   2.4051   2.4051   2.4051   3.4853   3.4853   3.4853   3.4853
     7.0744   7.0744   7.0745   7.0745   7.7312   7.7312   7.7312   7.7312
     7.9796   7.9796   7.9796   7.9796   8.5329   8.5329   8.5330   8.5330
     9.3800   9.3800   9.3800   9.3800   9.5260   9.5260   9.5261   9.5261
    10.3947  10.3947  10.3948  10.3948  11.4866  11.4866  11.4866  11.4866
    12.7701  12.7701  12.7701  12.7701  13.6219  13.6219  13.6219  13.6219
    13.7527  13.7527  13.7527  13.7527  14.3973  14.3973  14.3973  14.3973
    15.8443  15.8443  15.8443  15.8443  16.3011  16.3011  16.3011  16.3011
    17.9719  17.9719  17.9719  17.9719  19.8103  19.8103  19.8103  19.8103
    20.4789  20.4789  20.4789  20.4789  22.8974  22.8974  22.8974  22.8974
    23.4600  23.4600  23.4600  23.4600  26.3783  26.3783  26.3783  26.3783
    26.8727  26.8727  26.8727  26.8727  31.1186  31.1186  31.1186  31.1186
    31.5243  31.5243  31.5243  31.5243  32.1765  32.1765  32.1765  32.1765
    32.2966  32.2966  32.2966  32.2966  32.8468  32.8468  32.8468  32.8468
    33.2901  33.2901  33.2901  33.2901  33.8043  33.8043  33.8043  33.8043

     occupation numbers 
     1.0000   1.0000   1.0000   1.0000   1.0000   1.0000   1.0000   1.0000
     1.0000   1.0000   1.0000   1.0000   1.0000   1.0000   1.0000   1.0000
     1.0000   1.0000   1.0000   1.0000   1.0000   1.0000   1.0000   1.0000
     1.0000   1.0000   1.0000   1.0000   1.0000   1.0000   1.0000   1.0000
     1.0000   1.0000   1.0000   1.0000   1.0000   1.0000   1.0000   1.0000
     1.0000   1.0000   1.0000   1.0000   1.0000   1.0000   1.0000   1.0000
     1.0000   1.0000   1.0000   1.0000   1.0000   1.0000   1.0000   1.0000
     1.0000   1.0000   1.0000   1.0000   1.0000   1.0000   1.0000   1.0000
     1.0000   1.0000   1.0000   1.0000   1.0000   1.0000   1.0000   1.0000
     1.0000   1.0000   1.0000   1.0000   1.0000   1.0000   1.0000   1.0000
    -0.0601  -0.0601  -0.0781  -0.0781   0.0000   0.0000   0.0000   0.0000
     0.0000   0.0000   0.0000   0.0000   0.0000   0.0000   0.0000   0.0000
     0.0000   0.0000   0.0000   0.0000   0.0000   0.0000   0.0000   0.0000
     0.0000   0.0000   0.0000   0.0000   0.0000   0.0000   0.0000   0.0000
     0.0000   0.0000   0.0000   0.0000   0.0000   0.0000   0.0000   0.0000
     0.0000   0.0000   0.0000   0.0000   0.0000   0.0000   0.0000   0.0000
     0.0000   0.0000   0.0000   0.0000   0.0000   0.0000   0.0000   0.0000
     0.0000   0.0000   0.0000   0.0000   0.0000   0.0000   0.0000   0.0000
     0.0000   0.0000   0.0000   0.0000   0.0000   0.0000   0.0000   0.0000
     0.0000   0.0000   0.0000   0.0000   0.0000   0.0000   0.0000   0.0000

          k =-0.5000-0.5000 0.0320 (  8028 PWs)   bands (ev):

   -11.9804 -11.9804 -11.9804 -11.9804 -11.9662 -11.9662 -11.9662 -11.9662
   -11.9489 -11.9489 -11.9489 -11.9489 -11.9481 -11.9481 -11.9481 -11.9481
    -9.0364  -9.0364  -9.0364  -9.0364  -9.0221  -9.0221  -9.0221  -9.0221
    -8.9800  -8.9800  -8.9800  -8.9800  -8.9331  -8.9331  -8.9331  -8.9331
    -8.8869  -8.8869  -8.8869  -8.8869  -8.8856  -8.8856  -8.8856  -8.8856
     2.4051   2.4051   2.4051   2.4051   3.4853   3.4853   3.4853   3.4853
     7.0763   7.0763   7.0763   7.0763   7.7105   7.7105   7.7105   7.7105
     8.0054   8.0054   8.0054   8.0054   8.5339   8.5339   8.5340   8.5340
     9.3648   9.3648   9.3648   9.3648   9.5245   9.5245   9.5246   9.5246
    10.3948  10.3948  10.3949  10.3949  11.5175  11.5175  11.5175  11.5175
    12.7393  12.7393  12.7393  12.7393  13.6122  13.6122  13.6122  13.6122
    13.7366  13.7366  13.7366  13.7366  14.4345  14.4345  14.4345  14.4345
    15.9219  15.9219  15.9219  15.9219  16.2451  16.2451  16.2451  16.2451
    17.8568  17.8568  17.8568  17.8568  19.9065  19.9065  19.9065  19.9065
    20.6096  20.6096  20.6096  20.6096  22.7632  22.7632  22.7633  22.7633
    23.3067  23.3067  23.3067  23.3067  26.5536  26.5536  26.5536  26.5536
    27.0221  27.0221  27.0221  27.0221  30.6071  30.6071  30.6071  30.6071
    31.5957  31.5957  31.5958  31.5958  31.9568  31.9568  31.9568  31.9568
    32.5279  32.5279  32.5280  32.5280  33.0777  33.0777  33.0777  33.0777
    33.2666  33.2666  33.2667  33.2667  33.9541  33.9541  33.9541  33.9541

     occupation numbers 
     1.0000   1.0000   1.0000   1.0000   1.0000   1.0000   1.0000   1.0000
     1.0000   1.0000   1.0000   1.0000   1.0000   1.0000   1.0000   1.0000
     1.0000   1.0000   1.0000   1.0000   1.0000   1.0000   1.0000   1.0000
     1.0000   1.0000   1.0000   1.0000   1.0000   1.0000   1.0000   1.0000
     1.0000   1.0000   1.0000   1.0000   1.0000   1.0000   1.0000   1.0000
     1.0000   1.0000   1.0000   1.0000   1.0000   1.0000   1.0000   1.0000
     1.0000   1.0000   1.0000   1.0000   1.0000   1.0000   1.0000   1.0000
     1.0000   1.0000   1.0000   1.0000   1.0000   1.0000   1.0000   1.0000
     1.0000   1.0000   1.0000   1.0000   1.0000   1.0000   1.0000   1.0000
     1.0000   1.0000   1.0000   1.0000   1.0000   1.0000   1.0000   1.0000
    -0.0650  -0.0650  -0.0536  -0.0536   0.0000   0.0000   0.0000   0.0000
     0.0000   0.0000   0.0000   0.0000   0.0000   0.0000   0.0000   0.0000
     0.0000   0.0000   0.0000   0.0000   0.0000   0.0000   0.0000   0.0000
     0.0000   0.0000   0.0000   0.0000   0.0000   0.0000   0.0000   0.0000
     0.0000   0.0000   0.0000   0.0000   0.0000   0.0000   0.0000   0.0000
     0.0000   0.0000   0.0000   0.0000   0.0000   0.0000   0.0000   0.0000
     0.0000   0.0000   0.0000   0.0000   0.0000   0.0000   0.0000   0.0000
     0.0000   0.0000   0.0000   0.0000   0.0000   0.0000   0.0000   0.0000
     0.0000   0.0000   0.0000   0.0000   0.0000   0.0000   0.0000   0.0000
     0.0000   0.0000   0.0000   0.0000   0.0000   0.0000   0.0000   0.0000

          k =-0.5000-0.5000 0.0639 (  8020 PWs)   bands (ev):

   -11.9803 -11.9803 -11.9803 -11.9803 -11.9662 -11.9662 -11.9662 -11.9662
   -11.9489 -11.9489 -11.9489 -11.9489 -11.9481 -11.9481 -11.9481 -11.9481
    -9.0364  -9.0364  -9.0364  -9.0364  -9.0220  -9.0220  -9.0220  -9.0220
    -8.9799  -8.9799  -8.9798  -8.9798  -8.9331  -8.9331  -8.9331  -8.9331
    -8.8873  -8.8873  -8.8873  -8.8873  -8.8851  -8.8851  -8.8851  -8.8851
     2.4051   2.4051   2.4051   2.4051   3.4853   3.4853   3.4853   3.4853
     7.0808   7.0808   7.0808   7.0808   7.6706   7.6706   7.6706   7.6706
     8.0581   8.0581   8.0581   8.0581   8.5364   8.5364   8.5365   8.5365
     9.3282   9.3282   9.3283   9.3283   9.5205   9.5205   9.5206   9.5206
    10.3950  10.3950  10.3952  10.3952  11.5979  11.5979  11.5980  11.5980
    12.6575  12.6575  12.6575  12.6575  13.5960  13.5960  13.5960  13.5960
    13.6962  13.6962  13.6962  13.6962  14.5299  14.5299  14.5299  14.5299
    16.0910  16.0910  16.0910  16.0910  16.1513  16.1513  16.1513  16.1513
    17.5686  17.5686  17.5686  17.5686  20.1619  20.1619  20.1619  20.1619
    20.9452  20.9452  20.9452  20.9452  22.4273  22.4273  22.4273  22.4273
    22.9290  22.9290  22.9290  22.9290  26.9790  26.9790  26.9790  26.9790
    27.4170  27.4170  27.4170  27.4170  29.9126  29.9126  29.9126  29.9126
    30.8924  30.8924  30.8924  30.8924  32.2759  32.2759  32.2759  32.2759
    32.7573  32.7573  32.7573  32.7573  33.1449  33.1449  33.1449  33.1449
    33.4403  33.4403  33.4403  33.4403  34.2480  34.2480  34.2480  34.2480

     occupation numbers 
     1.0000   1.0000   1.0000   1.0000   1.0000   1.0000   1.0000   1.0000
     1.0000   1.0000   1.0000   1.0000   1.0000   1.0000   1.0000   1.0000
     1.0000   1.0000   1.0000   1.0000   1.0000   1.0000   1.0000   1.0000
     1.0000   1.0000   1.0000   1.0000   1.0000   1.0000   1.0000   1.0000
     1.0000   1.0000   1.0000   1.0000   1.0000   1.0000   1.0000   1.0000
     1.0000   1.0000   1.0000   1.0000   1.0000   1.0000   1.0000   1.0000
     1.0000   1.0000   1.0000   1.0000   1.0000   1.0000   1.0000   1.0000
     1.0000   1.0000   1.0000   1.0000   1.0000   1.0000   1.0000   1.0000
     1.0000   1.0000   1.0000   1.0000   1.0000   1.0000   1.0000   1.0000
     1.0000   1.0000   1.0000   1.0000   1.0000   1.0000   1.0000   1.0000
    -0.1107  -0.1107  -0.0466  -0.0466   0.0000   0.0000   0.0000   0.0000
     0.0000   0.0000   0.0000   0.0000   0.0000   0.0000   0.0000   0.0000
     0.0000   0.0000   0.0000   0.0000   0.0000   0.0000   0.0000   0.0000
     0.0000   0.0000   0.0000   0.0000   0.0000   0.0000   0.0000   0.0000
     0.0000   0.0000   0.0000   0.0000   0.0000   0.0000   0.0000   0.0000
     0.0000   0.0000   0.0000   0.0000   0.0000   0.0000   0.0000   0.0000
     0.0000   0.0000   0.0000   0.0000   0.0000   0.0000   0.0000   0.0000
     0.0000   0.0000   0.0000   0.0000   0.0000   0.0000   0.0000   0.0000
     0.0000   0.0000   0.0000   0.0000   0.0000   0.0000   0.0000   0.0000
     0.0000   0.0000   0.0000   0.0000   0.0000   0.0000   0.0000   0.0000

          k =-0.5000-0.5000 0.0959 (  8020 PWs)   bands (ev):

   -11.9804 -11.9804 -11.9803 -11.9803 -11.9662 -11.9662 -11.9662 -11.9662
   -11.9488 -11.9488 -11.9488 -11.9488 -11.9480 -11.9480 -11.9480 -11.9480
    -9.0364  -9.0364  -9.0364  -9.0364  -9.0219  -9.0219  -9.0219  -9.0219
    -8.9799  -8.9799  -8.9799  -8.9799  -8.9332  -8.9332  -8.9332  -8.9332
    -8.8876  -8.8876  -8.8876  -8.8876  -8.8848  -8.8848  -8.8848  -8.8848
     2.4051   2.4051   2.4051   2.4051   3.4852   3.4852   3.4852   3.4852
     7.0855   7.0855   7.0855   7.0855   7.6383   7.6383   7.6383   7.6383
     8.1040   8.1040   8.1040   8.1040   8.5388   8.5388   8.5389   8.5389
     9.2917   9.2917   9.2917   9.2917   9.5162   9.5162   9.5163   9.5163
    10.3953  10.3953  10.3954  10.3954  11.6910  11.6910  11.6910  11.6910
    12.5613  12.5613  12.5613  12.5613  13.5916  13.5916  13.5916  13.5916
    13.6515  13.6515  13.6516  13.6516  14.6367  14.6367  14.6367  14.6367
    15.9554  15.9554  15.9554  15.9554  16.4491  16.4491  16.4491  16.4491
    17.2002  17.2002  17.2002  17.2002  20.4834  20.4834  20.4834  20.4834
    21.3886  21.3886  21.3886  21.3886  22.0379  22.0379  22.0379  22.0379
    22.4527  22.4527  22.4527  22.4527  27.4610  27.4610  27.4610  27.4610
    27.9539  27.9539  27.9539  27.9539  29.2177  29.2177  29.2177  29.2177
    30.2694  30.2694  30.2694  30.2694  32.3654  32.3654  32.3654  32.3654
    33.0276  33.0276  33.0276  33.0276  33.1010  33.1010  33.1010  33.1010
    33.5823  33.5823  33.5823  33.5823  34.4326  34.4326  34.4326  34.4326

     occupation numbers 
     1.0000   1.0000   1.0000   1.0000   1.0000   1.0000   1.0000   1.0000
     1.0000   1.0000   1.0000   1.0000   1.0000   1.0000   1.0000   1.0000
     1.0000   1.0000   1.0000   1.0000   1.0000   1.0000   1.0000   1.0000
     1.0000   1.0000   1.0000   1.0000   1.0000   1.0000   1.0000   1.0000
     1.0000   1.0000   1.0000   1.0000   1.0000   1.0000   1.0000   1.0000
     1.0000   1.0000   1.0000   1.0000   1.0000   1.0000   1.0000   1.0000
     1.0000   1.0000   1.0000   1.0000   1.0000   1.0000   1.0000   1.0000
     1.0000   1.0000   1.0000   1.0000   1.0000   1.0000   1.0000   1.0000
     1.0000   1.0000   1.0000   1.0000   1.0000   1.0000   1.0000   1.0000
     1.0000   1.0000   1.0000   1.0000   1.0000   1.0000   1.0000   1.0000
    -0.1540  -0.1540  -0.1308  -0.1308   0.0000   0.0000   0.0000   0.0000
     0.0000   0.0000   0.0000   0.0000   0.0000   0.0000   0.0000   0.0000
     0.0000   0.0000   0.0000   0.0000   0.0000   0.0000   0.0000   0.0000
     0.0000   0.0000   0.0000   0.0000   0.0000   0.0000   0.0000   0.0000
     0.0000   0.0000   0.0000   0.0000   0.0000   0.0000   0.0000   0.0000
     0.0000   0.0000   0.0000   0.0000   0.0000   0.0000   0.0000   0.0000
     0.0000   0.0000   0.0000   0.0000   0.0000   0.0000   0.0000   0.0000
     0.0000   0.0000   0.0000   0.0000   0.0000   0.0000   0.0000   0.0000
     0.0000   0.0000   0.0000   0.0000   0.0000   0.0000   0.0000   0.0000
     0.0000   0.0000   0.0000   0.0000   0.0000   0.0000   0.0000   0.0000

          k =-0.5000-0.5000-0.1278 (  8000 PWs)   bands (ev):

   -11.9804 -11.9804 -11.9804 -11.9804 -11.9660 -11.9660 -11.9660 -11.9660
   -11.9485 -11.9485 -11.9485 -11.9485 -11.9481 -11.9481 -11.9481 -11.9481
    -9.0361  -9.0361  -9.0361  -9.0361  -9.0219  -9.0219  -9.0219  -9.0219
    -8.9799  -8.9799  -8.9799  -8.9799  -8.9332  -8.9332  -8.9332  -8.9332
    -8.8874  -8.8874  -8.8874  -8.8874  -8.8848  -8.8848  -8.8848  -8.8848
     2.4051   2.4051   2.4051   2.4051   3.4852   3.4852   3.4852   3.4852
     7.0875   7.0875   7.0875   7.0875   7.6263   7.6263   7.6263   7.6263
     8.1220   8.1220   8.1220   8.1220   8.5398   8.5398   8.5399   8.5399
     9.2765   9.2765   9.2765   9.2765   9.5144   9.5144   9.5144   9.5144
    10.3953  10.3953  10.3955  10.3955  11.7354  11.7354  11.7355  11.7355
    12.5151  12.5151  12.5151  12.5151  13.5978  13.5978  13.5978  13.5978
    13.6268  13.6268  13.6269  13.6269  14.6860  14.6860  14.6860  14.6860
    15.8905  15.8905  15.8905  15.8905  16.8057  16.8057  16.8058  16.8058
    16.8219  16.8219  16.8219  16.8219  20.6640  20.6640  20.6640  20.6640
    21.7472  21.7472  21.7472  21.7472  21.8619  21.8619  21.8619  21.8619
    22.0525  22.0525  22.0525  22.0525  27.7086  27.7086  27.7086  27.7086
    28.5563  28.5563  28.5563  28.5563  28.5612  28.5612  28.5612  28.5612
    29.9845  29.9845  29.9845  29.9845  32.3836  32.3836  32.3836  32.3836
    33.0804  33.0804  33.0804  33.0804  33.1428  33.1428  33.1428  33.1428
    33.6059  33.6059  33.6059  33.6059  34.5492  34.5492  34.5492  34.5492

     occupation numbers 
     1.0000   1.0000   1.0000   1.0000   1.0000   1.0000   1.0000   1.0000
     1.0000   1.0000   1.0000   1.0000   1.0000   1.0000   1.0000   1.0000
     1.0000   1.0000   1.0000   1.0000   1.0000   1.0000   1.0000   1.0000
     1.0000   1.0000   1.0000   1.0000   1.0000   1.0000   1.0000   1.0000
     1.0000   1.0000   1.0000   1.0000   1.0000   1.0000   1.0000   1.0000
     1.0000   1.0000   1.0000   1.0000   1.0000   1.0000   1.0000   1.0000
     1.0000   1.0000   1.0000   1.0000   1.0000   1.0000   1.0000   1.0000
     1.0000   1.0000   1.0000   1.0000   1.0000   1.0000   1.0000   1.0000
     1.0000   1.0000   1.0000   1.0000   1.0000   1.0000   1.0000   1.0000
     1.0000   1.0000   1.0000   1.0000   1.0000   1.0000   1.0000   1.0000
    -0.0239  -0.0239  -0.0331  -0.0331   0.0000   0.0000   0.0000   0.0000
     0.0000   0.0000   0.0000   0.0000   0.0000   0.0000   0.0000   0.0000
     0.0000   0.0000   0.0000   0.0000   0.0000   0.0000   0.0000   0.0000
     0.0000   0.0000   0.0000   0.0000   0.0000   0.0000   0.0000   0.0000
     0.0000   0.0000   0.0000   0.0000   0.0000   0.0000   0.0000   0.0000
     0.0000   0.0000   0.0000   0.0000   0.0000   0.0000   0.0000   0.0000
     0.0000   0.0000   0.0000   0.0000   0.0000   0.0000   0.0000   0.0000
     0.0000   0.0000   0.0000   0.0000   0.0000   0.0000   0.0000   0.0000
     0.0000   0.0000   0.0000   0.0000   0.0000   0.0000   0.0000   0.0000
     0.0000   0.0000   0.0000   0.0000   0.0000   0.0000   0.0000   0.0000

     the Fermi energy is    12.3888 ev
     (compare with:    12.3888 eV, computed in scf)

     Writing all to output data dir ./Bi2Pd/Bi2Pd.save/
 
     init_run     :      0.80s CPU      1.03s WALL (       1 calls)
     electrons    :    764.81s CPU    780.00s WALL (       1 calls)

     Called by init_run:
     wfcinit      :      0.00s CPU      0.00s WALL (       1 calls)
     wfcinit:atom :      0.11s CPU      0.20s WALL (      75 calls)
     wfcinit:wfcr :     16.19s CPU     16.41s WALL (      75 calls)
     potinit      :      0.02s CPU      0.03s WALL (       1 calls)
     hinit0       :      0.22s CPU      0.23s WALL (       1 calls)

     Called by electrons:
     c_bands      :    764.59s CPU    779.78s WALL (       1 calls)
     v_of_rho     :      0.01s CPU      0.01s WALL (       1 calls)
     v_h          :      0.00s CPU      0.00s WALL (       1 calls)
     v_xc         :      0.01s CPU      0.01s WALL (       1 calls)
     newd         :      0.53s CPU      0.74s WALL (       1 calls)

     Called by c_bands:
     init_us_2    :      0.06s CPU      0.11s WALL (      75 calls)
     init_us_2:cp :      0.06s CPU      0.11s WALL (      75 calls)
     cegterg      :    743.90s CPU    758.54s WALL (     271 calls)

     Called by sum_band:

     Called by *egterg:
     cdiaghg      :     77.42s CPU     81.30s WALL (    4874 calls)
     cegterg:over :    102.23s CPU    104.03s WALL (    4799 calls)
     cegterg:upda :     67.53s CPU     68.80s WALL (    4799 calls)
     cegterg:last :    168.35s CPU    169.90s WALL (    1901 calls)
     cdiaghg:chol :      1.59s CPU      1.62s WALL (    4874 calls)
     cdiaghg:inve :      0.60s CPU      0.62s WALL (    4874 calls)
     cdiaghg:para :     14.55s CPU     15.29s WALL (    9748 calls)
     h_psi        :    279.67s CPU    284.64s WALL (    5145 calls)
     s_psi        :     42.37s CPU     43.02s WALL (    5145 calls)
     g_psi        :      2.86s CPU      2.87s WALL (    4799 calls)

     Called by h_psi:
     h_psi:calbec :     38.78s CPU     39.29s WALL (    5145 calls)
     vloc_psi     :    192.30s CPU    196.15s WALL (    5145 calls)
     add_vuspsi   :     44.02s CPU     44.24s WALL (    5145 calls)

     General routines
     calbec       :     38.76s CPU     39.28s WALL (    5145 calls)
     fft          :      0.01s CPU      0.02s WALL (      12 calls)
     ffts         :      0.00s CPU      0.00s WALL (       4 calls)
     fftw         :    109.17s CPU    111.28s WALL ( 1237312 calls)
     interpolate  :      0.00s CPU      0.01s WALL (       4 calls)
     davcio       :      0.33s CPU      0.58s WALL (     150 calls)
 
     Parallel routines
 
     PWSCF        :  12m46.53s CPU  13m 3.62s WALL

 
   This run was terminated on:  14:36:22   6Jan2024            

=------------------------------------------------------------------------------=
   JOB DONE.
=------------------------------------------------------------------------------=
