
     Program PWSCF v.7.2 starts on  6Jan2024 at 14:37:15 

     This program is part of the open-source Quantum ESPRESSO suite
     for quantum simulation of materials; please cite
         "P. Giannozzi et al., J. Phys.:Condens. Matter 21 395502 (2009);
         "P. Giannozzi et al., J. Phys.:Condens. Matter 29 465901 (2017);
         "P. Giannozzi et al., J. Chem. Phys. 152 154105 (2020);
          URL http://www.quantum-espresso.org", 
     in publications or presentations arising from this work. More details at
     http://www.quantum-espresso.org/quote

     Parallel version (MPI), running on     4 processors

     MPI processes distributed on     1 nodes
     7124 MiB available memory on the printing compute node when the environment starts
 
     Waiting for input...
     Reading input from standard input

     Current dimensions of program PWSCF are:
     Max number of different atomic species (ntypx) = 10
     Max number of k-points (npk) =  40000
     Max angular momentum in pseudopotentials (lmaxx) =  4
     file Bi.rel-pz-dn-rrkjus_psl.1.0.0.UPF: wavefunction(s)  5D 5D renormalized
     file Pd.rel-pz-n-rrkjus_psl.1.0.0.UPF: wavefunction(s)  4D 4D renormalized

     Atomic positions and unit cell read from directory:
     ./Bi2Pd/Bi2Pd.save/
 
     Found identity + ( -0.5000 -0.5000  0.5000) symmetry
     This is a supercell, fractional translations are disabled
 
     R & G space division:  proc/nbgrp/npool/nimage =       4
     Subspace diagonalization in iterative solution of the eigenvalue problem:
     a serial algorithm will be used

 
     Parallelization info
     --------------------
     sticks:   dense  smooth     PW     G-vecs:    dense   smooth      PW
     Min         439     194     55                54325    16096    2421
     Max         440     195     56                54338    16109    2434
     Sum        1757     777    221               217317    64403    9701
 
     Using Slab Decomposition
 


     bravais-lattice index     =            6
     lattice parameter (alat)  =       6.3999  a.u.
     unit-cell volume          =    1025.3225 (a.u.)^3
     number of atoms/cell      =            6
     number of atomic types    =            2
     number of electrons       =        80.00
     number of Kohn-Sham states=           96
     kinetic-energy cutoff     =      60.0000  Ry
     charge density cutoff     =     540.0000  Ry
     Exchange-correlation= LDA
                           (   1   1   0   0   0   0   0)
     Non magnetic calculation with spin-orbit


     celldm(1)=   6.399898  celldm(2)=   0.000000  celldm(3)=   3.911483
     celldm(4)=   0.000000  celldm(5)=   0.000000  celldm(6)=   0.000000

     crystal axes: (cart. coord. in units of alat)
               a(1) = (   1.000000   0.000000   0.000000 )  
               a(2) = (   0.000000   1.000000   0.000000 )  
               a(3) = (   0.000000   0.000000   3.911483 )  

     reciprocal axes: (cart. coord. in units 2 pi/alat)
               b(1) = (  1.000000  0.000000  0.000000 )  
               b(2) = (  0.000000  1.000000  0.000000 )  
               b(3) = (  0.000000  0.000000  0.255658 )  


     PseudoPot. # 1 for Bi read from file:
     ~/q-e/pseudo/pslibrary/rel-pz/PSEUDOPOTENTIALS/Bi.rel-pz-dn-rrkjus_psl.1.0.0.UPF
     MD5 check sum: Not computed, couldn't open file
     Pseudo is Ultrasoft + core correction, Zval = 15.0
     Generated using 'atomic' code by A. Dal Corso  v.7.2
     Using radial grid of 1283 points, 10 beta functions with: 
                l(1) =   0
                l(2) =   0
                l(3) =   1
                l(4) =   1
                l(5) =   1
                l(6) =   1
                l(7) =   2
                l(8) =   2
                l(9) =   2
               l(10) =   2
     Q(r) pseudized with 0 coefficients 


     PseudoPot. # 2 for Pd read from file:
     ~/q-e/pseudo/pslibrary/rel-pz/PSEUDOPOTENTIALS/Pd.rel-pz-n-rrkjus_psl.1.0.0.UPF
     MD5 check sum: Not computed, couldn't open file
     Pseudo is Ultrasoft + core correction, Zval = 10.0
     Generated using 'atomic' code by A. Dal Corso  v.7.2
     Using radial grid of 1235 points, 10 beta functions with: 
                l(1) =   0
                l(2) =   0
                l(3) =   1
                l(4) =   1
                l(5) =   1
                l(6) =   1
                l(7) =   2
                l(8) =   2
                l(9) =   2
               l(10) =   2
     Q(r) pseudized with 0 coefficients 


     atomic species   valence    mass     pseudopotential
     Bi               15.00   208.98000     Bi( 1.00)
     Pd               10.00   106.42000     Pd( 1.00)

     16 Sym. Ops., with inversion, found


                                    s                        frac. trans.

      isym =  1     identity                                     

 cryst.   s( 1) = (     1          0          0      )
                  (     0          1          0      )
                  (     0          0          1      )

 cart.    s( 1) = (  1.0000000  0.0000000  0.0000000 )
                  (  0.0000000  1.0000000  0.0000000 )
                  (  0.0000000  0.0000000  1.0000000 )


      isym =  2     180 deg rotation - cart. axis [0,0,1]        

 cryst.   s( 2) = (    -1          0          0      )
                  (     0         -1          0      )
                  (     0          0          1      )

 cart.    s( 2) = ( -1.0000000  0.0000000  0.0000000 )
                  (  0.0000000 -1.0000000  0.0000000 )
                  (  0.0000000  0.0000000  1.0000000 )


      isym =  3     180 deg rotation - cart. axis [0,1,0]        

 cryst.   s( 3) = (    -1          0          0      )
                  (     0          1          0      )
                  (     0          0         -1      )

 cart.    s( 3) = ( -1.0000000  0.0000000  0.0000000 )
                  (  0.0000000  1.0000000  0.0000000 )
                  (  0.0000000  0.0000000 -1.0000000 )


      isym =  4     180 deg rotation - cart. axis [1,0,0]        

 cryst.   s( 4) = (     1          0          0      )
                  (     0         -1          0      )
                  (     0          0         -1      )

 cart.    s( 4) = (  1.0000000  0.0000000  0.0000000 )
                  (  0.0000000 -1.0000000  0.0000000 )
                  (  0.0000000  0.0000000 -1.0000000 )


      isym =  5     180 deg rotation - cart. axis [1,1,0]        

 cryst.   s( 5) = (     0          1          0      )
                  (     1          0          0      )
                  (     0          0         -1      )

 cart.    s( 5) = (  0.0000000  1.0000000  0.0000000 )
                  (  1.0000000  0.0000000  0.0000000 )
                  (  0.0000000  0.0000000 -1.0000000 )


      isym =  6     180 deg rotation - cart. axis [1,-1,0]       

 cryst.   s( 6) = (     0         -1          0      )
                  (    -1          0          0      )
                  (     0          0         -1      )

 cart.    s( 6) = (  0.0000000 -1.0000000  0.0000000 )
                  ( -1.0000000  0.0000000  0.0000000 )
                  (  0.0000000  0.0000000 -1.0000000 )


      isym =  7      90 deg rotation - cart. axis [0,0,-1]       

 cryst.   s( 7) = (     0         -1          0      )
                  (     1          0          0      )
                  (     0          0          1      )

 cart.    s( 7) = (  0.0000000  1.0000000  0.0000000 )
                  ( -1.0000000  0.0000000  0.0000000 )
                  (  0.0000000  0.0000000  1.0000000 )


      isym =  8      90 deg rotation - cart. axis [0,0,1]        

 cryst.   s( 8) = (     0          1          0      )
                  (    -1          0          0      )
                  (     0          0          1      )

 cart.    s( 8) = (  0.0000000 -1.0000000  0.0000000 )
                  (  1.0000000  0.0000000  0.0000000 )
                  (  0.0000000  0.0000000  1.0000000 )


      isym =  9     inversion                                    

 cryst.   s( 9) = (    -1          0          0      )
                  (     0         -1          0      )
                  (     0          0         -1      )

 cart.    s( 9) = ( -1.0000000  0.0000000  0.0000000 )
                  (  0.0000000 -1.0000000  0.0000000 )
                  (  0.0000000  0.0000000 -1.0000000 )


      isym = 10     inv. 180 deg rotation - cart. axis [0,0,1]   

 cryst.   s(10) = (     1          0          0      )
                  (     0          1          0      )
                  (     0          0         -1      )

 cart.    s(10) = (  1.0000000  0.0000000  0.0000000 )
                  (  0.0000000  1.0000000  0.0000000 )
                  (  0.0000000  0.0000000 -1.0000000 )


      isym = 11     inv. 180 deg rotation - cart. axis [0,1,0]   

 cryst.   s(11) = (     1          0          0      )
                  (     0         -1          0      )
                  (     0          0          1      )

 cart.    s(11) = (  1.0000000  0.0000000  0.0000000 )
                  (  0.0000000 -1.0000000  0.0000000 )
                  (  0.0000000  0.0000000  1.0000000 )


      isym = 12     inv. 180 deg rotation - cart. axis [1,0,0]   

 cryst.   s(12) = (    -1          0          0      )
                  (     0          1          0      )
                  (     0          0          1      )

 cart.    s(12) = ( -1.0000000  0.0000000  0.0000000 )
                  (  0.0000000  1.0000000  0.0000000 )
                  (  0.0000000  0.0000000  1.0000000 )


      isym = 13     inv. 180 deg rotation - cart. axis [1,1,0]   

 cryst.   s(13) = (     0         -1          0      )
                  (    -1          0          0      )
                  (     0          0          1      )

 cart.    s(13) = (  0.0000000 -1.0000000  0.0000000 )
                  ( -1.0000000  0.0000000  0.0000000 )
                  (  0.0000000  0.0000000  1.0000000 )


      isym = 14     inv. 180 deg rotation - cart. axis [1,-1,0]  

 cryst.   s(14) = (     0          1          0      )
                  (     1          0          0      )
                  (     0          0          1      )

 cart.    s(14) = (  0.0000000  1.0000000  0.0000000 )
                  (  1.0000000  0.0000000  0.0000000 )
                  (  0.0000000  0.0000000  1.0000000 )


      isym = 15     inv.  90 deg rotation - cart. axis [0,0,-1]  

 cryst.   s(15) = (     0          1          0      )
                  (    -1          0          0      )
                  (     0          0         -1      )

 cart.    s(15) = (  0.0000000 -1.0000000  0.0000000 )
                  (  1.0000000  0.0000000  0.0000000 )
                  (  0.0000000  0.0000000 -1.0000000 )


      isym = 16     inv.  90 deg rotation - cart. axis [0,0,1]   

 cryst.   s(16) = (     0         -1          0      )
                  (     1          0          0      )
                  (     0          0         -1      )

 cart.    s(16) = (  0.0000000  1.0000000  0.0000000 )
                  ( -1.0000000  0.0000000  0.0000000 )
                  (  0.0000000  0.0000000 -1.0000000 )


     double point group D_4h(4/mmm)
     there are 14 classes and  4 irreducible representations
     the character table:

       E     -E    2C4   -2C4   C2    2C2' 2C2'' i     -i    2S4   -2S4   s_h 
                               -C2   -2C2' -2C2'                         -s_h 
G_6+   2.00 -2.00  1.41 -1.41  0.00  0.00  0.00  2.00 -2.00  1.41 -1.41  0.00
G_7+   2.00 -2.00 -1.41  1.41  0.00  0.00  0.00  2.00 -2.00 -1.41  1.41  0.00
G_6-   2.00 -2.00  1.41 -1.41  0.00  0.00  0.00 -2.00  2.00 -1.41  1.41  0.00
G_7-   2.00 -2.00 -1.41  1.41  0.00  0.00  0.00 -2.00  2.00  1.41 -1.41  0.00

        2s_v  2s_d
       -2s_v -2s_d
G_6+   0.00  0.00
G_7+   0.00  0.00
G_6-   0.00  0.00
G_7-   0.00  0.00

     the symmetry operations in each class and the name of the first element:

     E             1
          identity                                               
     -E           -1
          identity E                                             
     2C4           7    8
           90 deg rotation - cart. axis [0,0,-1]                 
     -2C4         -7   -8
           90 deg rotation - cart. axis [0,0,-1] E               
      C2  -C2      2   -2
          180 deg rotation - cart. axis [0,0,1]                  
      2C2'-2C2'    3   -3    4   -4
          180 deg rotation - cart. axis [0,1,0]                  
     2C2''-2C2'    5   -5   -6    6
          180 deg rotation - cart. axis [1,1,0]                  
     i             9
          inversion                                              
     -i           -9
          inversion E                                            
     2S4          15   16
          inv.  90 deg rotation - cart. axis [0,0,-1]            
     -2S4        -15  -16
          inv.  90 deg rotation - cart. axis [0,0,-1] E          
      s_h -s_h    10  -10
          inv. 180 deg rotation - cart. axis [0,0,1]             
      2s_v-2s_v   11  -11   12  -12
          inv. 180 deg rotation - cart. axis [0,1,0]             
      2s_d-2s_d   13  -13  -14   14
          inv. 180 deg rotation - cart. axis [1,1,0]             

   Cartesian axes

     site n.     atom                  positions (alat units)
         1        Bi     tau(   1) = (   0.5000000   0.5000000   0.5175674  )
         2        Bi     tau(   2) = (   0.5000000   0.5000000   3.3939153  )
         3        Bi     tau(   3) = (   0.0000000   0.0000000   1.4381739  )
         4        Bi     tau(   4) = (   0.0000000   0.0000000   2.4733087  )
         5        Pd     tau(   5) = (   0.0000000   0.0000000   0.0000000  )
         6        Pd     tau(   6) = (   0.5000000   0.5000000   1.9557413  )

   Crystallographic axes

     site n.     atom                  positions (cryst. coord.)
         1        Bi     tau(   1) = (  0.5000000  0.5000000  0.1323200  )
         2        Bi     tau(   2) = (  0.5000000  0.5000000  0.8676800  )
         3        Bi     tau(   3) = (  0.0000000  0.0000000  0.3676800  )
         4        Bi     tau(   4) = (  0.0000000  0.0000000  0.6323200  )
         5        Pd     tau(   5) = (  0.0000000  0.0000000  0.0000000  )
         6        Pd     tau(   6) = (  0.5000000  0.5000000  0.5000000  )

     number of k points=    41  Methfessel-Paxton smearing, width (Ry)=  0.0100
                       cart. coord. in units 2pi/alat
        k(    1) = (   0.0000000   0.0000000   0.0000000), wk =   0.0243902
        k(    2) = (   0.0000000   0.0000000   0.0127829), wk =   0.0243902
        k(    3) = (   0.0000000   0.0000000   0.0255658), wk =   0.0243902
        k(    4) = (   0.0000000   0.0000000   0.0383486), wk =   0.0243902
        k(    5) = (   0.0000000   0.0000000   0.0511315), wk =   0.0243902
        k(    6) = (   0.0000000   0.0000000   0.0639144), wk =   0.0243902
        k(    7) = (   0.0000000   0.0000000   0.0766973), wk =   0.0243902
        k(    8) = (   0.0000000   0.0000000   0.0894801), wk =   0.0243902
        k(    9) = (   0.0000000   0.0000000   0.1022630), wk =   0.0243902
        k(   10) = (   0.0000000   0.0000000   0.1150459), wk =   0.0243902
        k(   11) = (   0.0000000   0.0000000   0.1278288), wk =   0.0243902
        k(   12) = (   0.0500000   0.0000000   0.1150459), wk =   0.0243902
        k(   13) = (   0.1000000   0.0000000   0.1022630), wk =   0.0243902
        k(   14) = (   0.1500000   0.0000000   0.0894801), wk =   0.0243902
        k(   15) = (   0.2000000   0.0000000   0.0766973), wk =   0.0243902
        k(   16) = (   0.2500000   0.0000000   0.0639144), wk =   0.0243902
        k(   17) = (   0.3000000   0.0000000   0.0511315), wk =   0.0243902
        k(   18) = (   0.3500000   0.0000000   0.0383486), wk =   0.0243902
        k(   19) = (   0.4000000   0.0000000   0.0255658), wk =   0.0243902
        k(   20) = (   0.4500000   0.0000000   0.0127829), wk =   0.0243902
        k(   21) = (   0.5000000   0.0000000   0.0000000), wk =   0.0243902
        k(   22) = (   0.4750000   0.0250000   0.0000000), wk =   0.0243902
        k(   23) = (   0.4500000   0.0500000   0.0000000), wk =   0.0243902
        k(   24) = (   0.4250000   0.0750000   0.0000000), wk =   0.0243902
        k(   25) = (   0.4000000   0.1000000   0.0000000), wk =   0.0243902
        k(   26) = (   0.3750000   0.1250000   0.0000000), wk =   0.0243902
        k(   27) = (   0.3500000   0.1500000   0.0000000), wk =   0.0243902
        k(   28) = (   0.3250000   0.1750000   0.0000000), wk =   0.0243902
        k(   29) = (   0.3000000   0.2000000   0.0000000), wk =   0.0243902
        k(   30) = (   0.2750000   0.2250000   0.0000000), wk =   0.0243902
        k(   31) = (   0.2500000   0.2500000   0.0000000), wk =   0.0243902
        k(   32) = (   0.2250000   0.2250000   0.0000000), wk =   0.0243902
        k(   33) = (   0.2000000   0.2000000   0.0000000), wk =   0.0243902
        k(   34) = (   0.1750000   0.1750000   0.0000000), wk =   0.0243902
        k(   35) = (   0.1500000   0.1500000   0.0000000), wk =   0.0243902
        k(   36) = (   0.1250000   0.1250000   0.0000000), wk =   0.0243902
        k(   37) = (   0.1000000   0.1000000   0.0000000), wk =   0.0243902
        k(   38) = (   0.0750000   0.0750000   0.0000000), wk =   0.0243902
        k(   39) = (   0.0500000   0.0500000   0.0000000), wk =   0.0243902
        k(   40) = (   0.0250000   0.0250000   0.0000000), wk =   0.0243902
        k(   41) = (   0.0000000   0.0000000   0.0000000), wk =   0.0243902

                       cryst. coord.
        k(    1) = (   0.0000000   0.0000000   0.0000000), wk =   0.0243902
        k(    2) = (   0.0000000   0.0000000   0.0500000), wk =   0.0243902
        k(    3) = (   0.0000000   0.0000000   0.1000000), wk =   0.0243902
        k(    4) = (   0.0000000   0.0000000   0.1500000), wk =   0.0243902
        k(    5) = (   0.0000000   0.0000000   0.2000000), wk =   0.0243902
        k(    6) = (   0.0000000   0.0000000   0.2500000), wk =   0.0243902
        k(    7) = (   0.0000000   0.0000000   0.3000000), wk =   0.0243902
        k(    8) = (   0.0000000   0.0000000   0.3500000), wk =   0.0243902
        k(    9) = (   0.0000000   0.0000000   0.4000000), wk =   0.0243902
        k(   10) = (   0.0000000   0.0000000   0.4500000), wk =   0.0243902
        k(   11) = (   0.0000000   0.0000000   0.5000000), wk =   0.0243902
        k(   12) = (   0.0500000   0.0000000   0.4500000), wk =   0.0243902
        k(   13) = (   0.1000000   0.0000000   0.4000000), wk =   0.0243902
        k(   14) = (   0.1500000   0.0000000   0.3500000), wk =   0.0243902
        k(   15) = (   0.2000000   0.0000000   0.3000000), wk =   0.0243902
        k(   16) = (   0.2500000   0.0000000   0.2500000), wk =   0.0243902
        k(   17) = (   0.3000000   0.0000000   0.2000000), wk =   0.0243902
        k(   18) = (   0.3500000   0.0000000   0.1500000), wk =   0.0243902
        k(   19) = (   0.4000000   0.0000000   0.1000000), wk =   0.0243902
        k(   20) = (   0.4500000   0.0000000   0.0500000), wk =   0.0243902
        k(   21) = (   0.5000000   0.0000000   0.0000000), wk =   0.0243902
        k(   22) = (   0.4750000   0.0250000   0.0000000), wk =   0.0243902
        k(   23) = (   0.4500000   0.0500000   0.0000000), wk =   0.0243902
        k(   24) = (   0.4250000   0.0750000   0.0000000), wk =   0.0243902
        k(   25) = (   0.4000000   0.1000000   0.0000000), wk =   0.0243902
        k(   26) = (   0.3750000   0.1250000   0.0000000), wk =   0.0243902
        k(   27) = (   0.3500000   0.1500000   0.0000000), wk =   0.0243902
        k(   28) = (   0.3250000   0.1750000   0.0000000), wk =   0.0243902
        k(   29) = (   0.3000000   0.2000000   0.0000000), wk =   0.0243902
        k(   30) = (   0.2750000   0.2250000   0.0000000), wk =   0.0243902
        k(   31) = (   0.2500000   0.2500000   0.0000000), wk =   0.0243902
        k(   32) = (   0.2250000   0.2250000   0.0000000), wk =   0.0243902
        k(   33) = (   0.2000000   0.2000000   0.0000000), wk =   0.0243902
        k(   34) = (   0.1750000   0.1750000   0.0000000), wk =   0.0243902
        k(   35) = (   0.1500000   0.1500000   0.0000000), wk =   0.0243902
        k(   36) = (   0.1250000   0.1250000   0.0000000), wk =   0.0243902
        k(   37) = (   0.1000000   0.1000000   0.0000000), wk =   0.0243902
        k(   38) = (   0.0750000   0.0750000   0.0000000), wk =   0.0243902
        k(   39) = (   0.0500000   0.0500000   0.0000000), wk =   0.0243902
        k(   40) = (   0.0250000   0.0250000   0.0000000), wk =   0.0243902
        k(   41) = (   0.0000000   0.0000000   0.0000000), wk =   0.0243902

     Dense  grid:   217317 G-vectors     FFT dimensions: (  48,  48, 192)

     Smooth grid:    64403 G-vectors     FFT dimensions: (  32,  32, 125)

     Dynamical RAM for                 wfc:       5.89 MB

     Dynamical RAM for     wfc (w. buffer):       5.89 MB

     Dynamical RAM for           str. fact:       1.66 MB

     Dynamical RAM for           local pot:       0.00 MB

     Dynamical RAM for          nlocal pot:       6.26 MB

     Dynamical RAM for                qrad:       9.76 MB

     Dynamical RAM for          rho,v,vnew:      20.07 MB

     Dynamical RAM for           G-vectors:       3.23 MB

     Dynamical RAM for          h,s,v(r/c):       1.69 MB

     Dynamical RAM for          <psi|beta>:       0.60 MB

     Dynamical RAM for                 psi:      11.78 MB

     Dynamical RAM for                hpsi:      11.78 MB

     Dynamical RAM for                spsi:      11.78 MB

     Dynamical RAM for      wfcinit/wfcrot:      10.21 MB

     Dynamical RAM for           addusdens:     508.97 MB

     Estimated static dynamical RAM per process >      56.11 MB

     Estimated max dynamical RAM per process >     565.08 MB

     Estimated total dynamical RAM >       2.21 GB

     The potential is recalculated from file :
     ./Bi2Pd/Bi2Pd.save/charge-density

     Starting wfcs are  108 randomized atomic wfcs

     Band Structure Calculation
     Davidson diagonalization with overlap

     Computing kpt #:     1  of    41
     total cpu time spent up to now is        5.6 secs

     Computing kpt #:     2  of    41
     total cpu time spent up to now is       10.1 secs

     Computing kpt #:     3  of    41
     total cpu time spent up to now is       14.3 secs

     Computing kpt #:     4  of    41
     total cpu time spent up to now is       18.4 secs

     Computing kpt #:     5  of    41
     total cpu time spent up to now is       22.6 secs

     Computing kpt #:     6  of    41
     total cpu time spent up to now is       27.2 secs

     Computing kpt #:     7  of    41
     total cpu time spent up to now is       31.7 secs

     Computing kpt #:     8  of    41
     total cpu time spent up to now is       36.3 secs

     Computing kpt #:     9  of    41
     total cpu time spent up to now is       40.8 secs

     Computing kpt #:    10  of    41
     total cpu time spent up to now is       45.4 secs

     Computing kpt #:    11  of    41
     total cpu time spent up to now is       49.9 secs

     Computing kpt #:    12  of    41
     total cpu time spent up to now is       54.4 secs

     Computing kpt #:    13  of    41
     total cpu time spent up to now is       58.9 secs

     Computing kpt #:    14  of    41
     total cpu time spent up to now is       63.1 secs

     Computing kpt #:    15  of    41
     total cpu time spent up to now is       67.3 secs

     Computing kpt #:    16  of    41
     total cpu time spent up to now is       71.5 secs

     Computing kpt #:    17  of    41
     total cpu time spent up to now is       75.8 secs

     Computing kpt #:    18  of    41
     total cpu time spent up to now is       80.0 secs

     Computing kpt #:    19  of    41
     total cpu time spent up to now is       84.0 secs

     Computing kpt #:    20  of    41
     total cpu time spent up to now is       88.0 secs

     Computing kpt #:    21  of    41
     total cpu time spent up to now is       92.0 secs

     Computing kpt #:    22  of    41
     total cpu time spent up to now is       95.9 secs

     Computing kpt #:    23  of    41
     total cpu time spent up to now is       99.9 secs

     Computing kpt #:    24  of    41
     total cpu time spent up to now is      104.0 secs

     Computing kpt #:    25  of    41
     total cpu time spent up to now is      108.0 secs

     Computing kpt #:    26  of    41
     total cpu time spent up to now is      112.1 secs

     Computing kpt #:    27  of    41
     total cpu time spent up to now is      116.1 secs

     Computing kpt #:    28  of    41
     total cpu time spent up to now is      120.1 secs

     Computing kpt #:    29  of    41
     total cpu time spent up to now is      124.1 secs

     Computing kpt #:    30  of    41
     total cpu time spent up to now is      128.2 secs

     Computing kpt #:    31  of    41
     total cpu time spent up to now is      132.7 secs

     Computing kpt #:    32  of    41
     total cpu time spent up to now is      137.2 secs

     Computing kpt #:    33  of    41
     total cpu time spent up to now is      141.8 secs

     Computing kpt #:    34  of    41
     total cpu time spent up to now is      146.3 secs

     Computing kpt #:    35  of    41
     total cpu time spent up to now is      150.7 secs

     Computing kpt #:    36  of    41
     total cpu time spent up to now is      154.9 secs

     Computing kpt #:    37  of    41
     total cpu time spent up to now is      159.0 secs

     Computing kpt #:    38  of    41
     total cpu time spent up to now is      163.6 secs

     Computing kpt #:    39  of    41
     total cpu time spent up to now is      167.9 secs

     Computing kpt #:    40  of    41
     total cpu time spent up to now is      172.0 secs

     Computing kpt #:    41  of    41
     total cpu time spent up to now is      176.1 secs

     ethr =  1.25E-11,  avg # of iterations = 38.6

     total cpu time spent up to now is      176.1 secs

     End of band structure calculation

          k = 0.0000 0.0000 0.0000 (  8029 PWs)   bands (ev):

   -12.0007 -12.0007 -12.0006 -12.0006 -11.9984 -11.9984 -11.9984 -11.9984
   -11.9946 -11.9946 -11.9844 -11.9844 -11.9775 -11.9775 -11.9677 -11.9677
    -9.0566  -9.0566  -9.0560  -9.0560  -9.0549  -9.0549  -9.0543  -9.0543
    -9.0307  -9.0307  -9.0212  -9.0212  -8.9885  -8.9885  -8.9808  -8.9808
    -8.9366  -8.9366  -8.9261  -8.9261  -8.9195  -8.9195  -8.9074  -8.9074
    -0.8898  -0.8898  -0.3213  -0.3213  -0.0750  -0.0750   0.8328   0.8328
     6.2107   6.2107   7.8175   7.8175   8.4522   8.4522   8.4525   8.4525
     8.9052   8.9052   8.9791   8.9791   9.3238   9.3238   9.3435   9.3435
     9.5131   9.5131   9.7328   9.7328   9.8125   9.8125   9.8144   9.8144
    10.6259  10.6259  12.4257  12.4257  13.2455  13.2455  14.5946  14.5946
    14.7628  14.7628  15.0087  15.0087  15.4680  15.4680  15.5038  15.5038
    16.5217  16.5217  16.8058  16.8058  17.9056  17.9056  18.3896  18.3896

          k = 0.0000 0.0000 0.0128 (  8013 PWs)   bands (ev):

   -12.0007 -12.0007 -12.0005 -12.0005 -11.9984 -11.9984 -11.9984 -11.9984
   -11.9944 -11.9944 -11.9844 -11.9844 -11.9773 -11.9773 -11.9677 -11.9677
    -9.0565  -9.0565  -9.0560  -9.0560  -9.0548  -9.0548  -9.0543  -9.0543
    -9.0305  -9.0305  -9.0213  -9.0213  -8.9884  -8.9884  -8.9807  -8.9807
    -8.9365  -8.9365  -8.9263  -8.9263  -8.9192  -8.9192  -8.9074  -8.9074
    -0.8880  -0.8880  -0.3354  -0.3354  -0.0590  -0.0590   0.8286   0.8286
     6.2182   6.2182   7.8016   7.8016   8.4522   8.4522   8.4525   8.4525
     8.9054   8.9054   8.9770   8.9770   9.3239   9.3239   9.3434   9.3434
     9.5202   9.5202   9.7326   9.7326   9.8125   9.8125   9.8144   9.8144
    10.6393  10.6393  12.4166  12.4166  13.2503  13.2503  14.5934  14.5934
    14.7656  14.7656  14.9892  14.9892  15.4637  15.4637  15.4945  15.4945
    16.5341  16.5341  16.8340  16.8340  17.8975  17.8975  18.3891  18.3891

          k = 0.0000 0.0000 0.0256 (  8005 PWs)   bands (ev):

   -12.0005 -12.0005 -12.0005 -12.0005 -11.9984 -11.9984 -11.9983 -11.9983
   -11.9942 -11.9942 -11.9848 -11.9848 -11.9769 -11.9769 -11.9678 -11.9678
    -9.0565  -9.0565  -9.0559  -9.0559  -9.0548  -9.0548  -9.0543  -9.0543
    -9.0303  -9.0303  -9.0215  -9.0215  -8.9882  -8.9882  -8.9809  -8.9809
    -8.9364  -8.9364  -8.9266  -8.9266  -8.9187  -8.9187  -8.9075  -8.9075
    -0.8827  -0.8827  -0.3701  -0.3701  -0.0188  -0.0188   0.8162   0.8162
     6.2407   6.2407   7.7556   7.7556   8.4522   8.4522   8.4525   8.4525
     8.9060   8.9060   8.9715   8.9715   9.3243   9.3243   9.3430   9.3430
     9.5393   9.5393   9.7320   9.7320   9.8125   9.8125   9.8144   9.8144
    10.6792  10.6792  12.3896  12.3896  13.2648  13.2648  14.5852  14.5852
    14.7743  14.7743  14.9402  14.9402  15.4509  15.4509  15.4680  15.4680
    16.5699  16.5699  16.9136  16.9136  17.8735  17.8735  18.3876  18.3876

          k = 0.0000 0.0000 0.0383 (  8030 PWs)   bands (ev):

   -12.0007 -12.0007 -12.0005 -12.0005 -11.9985 -11.9985 -11.9983 -11.9983
   -11.9942 -11.9942 -11.9857 -11.9857 -11.9764 -11.9764 -11.9680 -11.9680
    -9.0566  -9.0566  -9.0559  -9.0559  -9.0549  -9.0549  -9.0543  -9.0543
    -9.0302  -9.0302  -9.0220  -9.0220  -8.9880  -8.9880  -8.9811  -8.9811
    -8.9364  -8.9364  -8.9273  -8.9273  -8.9180  -8.9180  -8.9079  -8.9079
    -0.8737  -0.8737  -0.4140  -0.4140   0.0341   0.0341   0.7957   0.7957
     6.2778   6.2778   7.6836   7.6836   8.4522   8.4522   8.4525   8.4525
     8.9070   8.9070   8.9641   8.9641   9.3249   9.3249   9.3424   9.3424
     9.5656   9.5656   9.7309   9.7309   9.8126   9.8126   9.8143   9.8143
    10.7443  10.7443  12.3452  12.3452  13.2889  13.2889  14.5549  14.5549
    14.7886  14.7886  14.8883  14.8883  15.4278  15.4278  15.4299  15.4299
    16.6255  16.6255  17.0324  17.0324  17.8344  17.8344  18.3847  18.3847

          k = 0.0000 0.0000 0.0511 (  8034 PWs)   bands (ev):

   -12.0007 -12.0007 -12.0005 -12.0005 -11.9985 -11.9985 -11.9983 -11.9983
   -11.9939 -11.9939 -11.9864 -11.9864 -11.9758 -11.9758 -11.9682 -11.9682
    -9.0566  -9.0566  -9.0559  -9.0559  -9.0549  -9.0549  -9.0543  -9.0543
    -9.0299  -9.0299  -9.0224  -9.0224  -8.9877  -8.9877  -8.9813  -8.9813
    -8.9362  -8.9362  -8.9282  -8.9282  -8.9171  -8.9171  -8.9082  -8.9082
    -0.8612  -0.8612  -0.4609  -0.4609   0.0935   0.0935   0.7677   0.7677
     6.3289   6.3289   7.5911   7.5911   8.4522   8.4522   8.4525   8.4525
     8.9083   8.9083   8.9564   8.9564   9.3257   9.3257   9.3416   9.3416
     9.5940   9.5940   9.7294   9.7294   9.8126   9.8126   9.8142   9.8142
    10.8325  10.8325  12.2838  12.2838  13.3231  13.3231  14.4841  14.4841
    14.8086  14.8086  14.8639  14.8639  15.3781  15.3781  15.4011  15.4011
    16.6966  16.6966  17.1774  17.1774  17.7815  17.7815  18.3798  18.3798

          k = 0.0000 0.0000 0.0639 (  8030 PWs)   bands (ev):

   -12.0007 -12.0007 -12.0005 -12.0005 -11.9984 -11.9984 -11.9983 -11.9983
   -11.9935 -11.9935 -11.9871 -11.9871 -11.9751 -11.9751 -11.9686 -11.9686
    -9.0565  -9.0565  -9.0559  -9.0559  -9.0548  -9.0548  -9.0543  -9.0543
    -9.0295  -9.0295  -9.0230  -9.0230  -8.9873  -8.9873  -8.9817  -8.9817
    -8.9359  -8.9359  -8.9290  -8.9290  -8.9162  -8.9162  -8.9085  -8.9085
    -0.8452  -0.8452  -0.5080  -0.5080   0.1563   0.1563   0.7326   0.7326
     6.3933   6.3933   7.4838   7.4838   8.4522   8.4522   8.4525   8.4525
     8.9100   8.9100   8.9492   8.9492   9.3267   9.3267   9.3406   9.3406
     9.6208   9.6208   9.7272   9.7272   9.8127   9.8127   9.8141   9.8141
    10.9405  10.9405  12.2065  12.2065  13.3675  13.3675  14.3762  14.3762
    14.8341  14.8341  14.8734  14.8734  15.3225  15.3225  15.3653  15.3653
    16.7793  16.7793  17.3378  17.3378  17.7163  17.7163  18.3717  18.3717

          k = 0.0000 0.0000 0.0767 (  8022 PWs)   bands (ev):

   -12.0007 -12.0007 -12.0005 -12.0005 -11.9984 -11.9984 -11.9983 -11.9983
   -11.9931 -11.9931 -11.9879 -11.9879 -11.9743 -11.9743 -11.9688 -11.9688
    -9.0565  -9.0565  -9.0560  -9.0560  -9.0548  -9.0548  -9.0544  -9.0544
    -9.0290  -9.0290  -9.0236  -9.0236  -8.9867  -8.9867  -8.9819  -8.9819
    -8.9355  -8.9355  -8.9298  -8.9298  -8.9152  -8.9152  -8.9090  -8.9090
    -0.8257  -0.8257  -0.5539  -0.5539   0.2207   0.2207   0.6911   0.6911
     6.4702   6.4702   7.3669   7.3669   8.4522   8.4522   8.4525   8.4525
     8.9120   8.9120   8.9427   8.9427   9.3278   9.3278   9.3394   9.3394
     9.6442   9.6442   9.7244   9.7244   9.8128   9.8128   9.8140   9.8140
    11.0640  11.0640  12.1141  12.1141  13.4225  13.4225  14.2493  14.2493
    14.8650  14.8650  14.9051  14.9051  15.2640  15.2640  15.3232  15.3232
    16.8701  16.8701  17.5054  17.5054  17.6407  17.6407  18.3581  18.3581

          k = 0.0000 0.0000 0.0895 (  8034 PWs)   bands (ev):

   -12.0007 -12.0007 -12.0007 -12.0007 -11.9984 -11.9984 -11.9984 -11.9984
   -11.9927 -11.9927 -11.9886 -11.9886 -11.9735 -11.9735 -11.9694 -11.9694
    -9.0565  -9.0565  -9.0562  -9.0562  -9.0548  -9.0548  -9.0545  -9.0545
    -9.0284  -9.0284  -9.0241  -9.0241  -8.9861  -8.9861  -8.9824  -8.9824
    -8.9350  -8.9350  -8.9309  -8.9309  -8.9142  -8.9142  -8.9096  -8.9096
    -0.8028  -0.8028  -0.5978  -0.5978   0.2858   0.2858   0.6440   0.6440
     6.5583   6.5583   7.2446   7.2446   8.4523   8.4523   8.4525   8.4525
     8.9144   8.9144   8.9371   8.9371   9.3291   9.3291   9.3381   9.3381
     9.6637   9.6637   9.7207   9.7207   9.8130   9.8130   9.8139   9.8139
    11.1985  11.1985  12.0080  12.0080  13.4886  13.4886  14.1174  14.1174
    14.9010  14.9010  14.9494  14.9494  15.2048  15.2048  15.2758  15.2758
    16.9666  16.9666  17.5564  17.5564  17.6737  17.6737  18.3346  18.3346

          k = 0.0000 0.0000 0.1023 (  8030 PWs)   bands (ev):

   -12.0007 -12.0007 -12.0007 -12.0007 -11.9984 -11.9984 -11.9983 -11.9983
   -11.9921 -11.9921 -11.9895 -11.9895 -11.9727 -11.9727 -11.9699 -11.9699
    -9.0565  -9.0565  -9.0562  -9.0562  -9.0546  -9.0546  -9.0545  -9.0545
    -9.0278  -9.0278  -9.0249  -9.0249  -8.9855  -8.9855  -8.9830  -8.9830
    -8.9345  -8.9345  -8.9317  -8.9317  -8.9133  -8.9133  -8.9101  -8.9101
    -0.7765  -0.7765  -0.6394  -0.6394   0.3506   0.3506   0.5920   0.5920
     6.6566   6.6566   7.1205   7.1205   8.4523   8.4523   8.4524   8.4524
     8.9172   8.9172   8.9321   8.9321   9.3306   9.3306   9.3367   9.3367
     9.6795   9.6795   9.7159   9.7159   9.8131   9.8131   9.8137   9.8137
    11.3395  11.3395  11.8896  11.8896  13.5659  13.5659  13.9885  13.9885
    14.9419  14.9419  15.0008  15.0008  15.1464  15.1464  15.2241  15.2241
    17.0665  17.0665  17.4652  17.4652  17.8370  17.8370  18.2935  18.2935

          k = 0.0000 0.0000 0.1150 (  8046 PWs)   bands (ev):

   -12.0008 -12.0008 -12.0006 -12.0006 -11.9984 -11.9984 -11.9983 -11.9983
   -11.9917 -11.9917 -11.9902 -11.9902 -11.9720 -11.9720 -11.9707 -11.9707
    -9.0563  -9.0563  -9.0563  -9.0563  -9.0546  -9.0546  -9.0546  -9.0546
    -9.0273  -9.0273  -9.0257  -9.0257  -8.9849  -8.9849  -8.9836  -8.9836
    -8.9338  -8.9338  -8.9325  -8.9325  -8.9126  -8.9126  -8.9109  -8.9109
    -0.7469  -0.7469  -0.6782  -0.6782   0.4144   0.4144   0.5358   0.5358
     6.7636   6.7636   6.9974   6.9974   8.4523   8.4523   8.4524   8.4524
     8.9203   8.9203   8.9277   8.9277   9.3321   9.3321   9.3351   9.3351
     9.6921   9.6921   9.7098   9.7098   9.8132   9.8132   9.8136   9.8136
    11.4827  11.4827  11.7609  11.7609  13.6549  13.6549  13.8670  13.8670
    14.9873  14.9873  15.0560  15.0560  15.0902  15.0902  15.1693  15.1693
    17.1680  17.1680  17.3690  17.3690  17.9890  17.9890  18.2245  18.2245

          k = 0.0000 0.0000 0.1278 (  8046 PWs)   bands (ev):

   -12.0008 -12.0008 -12.0008 -12.0008 -11.9983 -11.9983 -11.9983 -11.9983
   -11.9909 -11.9909 -11.9909 -11.9909 -11.9714 -11.9714 -11.9714 -11.9714
    -9.0564  -9.0564  -9.0564  -9.0564  -9.0546  -9.0546  -9.0546  -9.0546
    -9.0265  -9.0265  -9.0264  -9.0264  -8.9843  -8.9843  -8.9843  -8.9843
    -8.9333  -8.9333  -8.9333  -8.9333  -8.9116  -8.9116  -8.9116  -8.9116
    -0.7141  -0.7141  -0.7141  -0.7141   0.4764   0.4764   0.4764   0.4764
     6.8777   6.8777   6.8778   6.8778   8.4523   8.4523   8.4524   8.4524
     8.9237   8.9237   8.9238   8.9238   9.3336   9.3336   9.3337   9.3337
     9.7019   9.7019   9.7020   9.7020   9.8134   9.8134   9.8135   9.8135
    11.6243  11.6243  11.6243  11.6243  13.7554  13.7554  13.7554  13.7554
    15.0369  15.0369  15.0369  15.0369  15.1128  15.1128  15.1128  15.1128
    17.2694  17.2694  17.2694  17.2694  18.1215  18.1215  18.1215  18.1215

          k = 0.0500 0.0000 0.1150 (  8018 PWs)   bands (ev):

   -11.9999 -11.9999 -11.9998 -11.9998 -11.9976 -11.9976 -11.9975 -11.9975
   -11.9911 -11.9911 -11.9898 -11.9898 -11.9719 -11.9719 -11.9705 -11.9705
    -9.0548  -9.0548  -9.0546  -9.0546  -9.0527  -9.0527  -9.0527  -9.0527
    -9.0263  -9.0263  -9.0249  -9.0249  -8.9843  -8.9843  -8.9830  -8.9830
    -8.9350  -8.9350  -8.9335  -8.9335  -8.9137  -8.9137  -8.9120  -8.9120
    -0.7170  -0.7170  -0.6485  -0.6485   0.4385   0.4385   0.5591   0.5591
     6.7943   6.7943   7.0259   7.0259   8.4589   8.4589   8.4590   8.4590
     8.9122   8.9122   8.9161   8.9161   9.3128   9.3128   9.3164   9.3164
     9.7204   9.7204   9.7255   9.7255   9.7906   9.7906   9.7908   9.7908
    11.4590  11.4590  11.7285  11.7285  13.5661  13.5661  13.7660  13.7660
    14.7906  14.7906  14.7924  14.7924  15.0855  15.0855  15.0868  15.0868
    16.8215  16.8215  17.0205  17.0205  18.2508  18.2508  18.4311  18.4311

          k = 0.1000 0.0000 0.1023 (  8019 PWs)   bands (ev):

   -11.9981 -11.9981 -11.9980 -11.9980 -11.9959 -11.9959 -11.9957 -11.9957
   -11.9903 -11.9903 -11.9879 -11.9879 -11.9722 -11.9722 -11.9698 -11.9698
    -9.0504  -9.0504  -9.0500  -9.0500  -9.0480  -9.0480  -9.0480  -9.0480
    -9.0244  -9.0244  -9.0217  -9.0217  -8.9829  -8.9829  -8.9807  -8.9807
    -8.9387  -8.9387  -8.9359  -8.9359  -8.9183  -8.9183  -8.9149  -8.9149
    -0.6572  -0.6572  -0.5218  -0.5218   0.4477   0.4477   0.6825   0.6825
     6.7819   6.7819   7.2274   7.2274   8.4741   8.4741   8.4746   8.4746
     8.8721   8.8721   8.8857   8.8857   9.2666   9.2666   9.2895   9.2895
     9.7245   9.7245   9.7256   9.7256   9.7525   9.7525   9.7870   9.7870
    11.2342  11.2342  11.6980  11.6980  13.1876  13.1876  13.4906  13.4906
    14.3680  14.3680  14.4603  14.4603  14.7993  14.7993  15.0106  15.0106
    16.3951  16.3951  16.7396  16.7396  18.5201  18.5201  18.7229  18.7229

          k = 0.1500 0.0000 0.0895 (  8006 PWs)   bands (ev):

   -11.9966 -11.9966 -11.9960 -11.9960 -11.9938 -11.9938 -11.9936 -11.9936
   -11.9871 -11.9871 -11.9844 -11.9844 -11.9719 -11.9719 -11.9686 -11.9686
    -9.0442  -9.0442  -9.0441  -9.0441  -9.0420  -9.0420  -9.0419  -9.0419
    -9.0189  -9.0189  -9.0155  -9.0155  -8.9807  -8.9807  -8.9774  -8.9774
    -8.9436  -8.9436  -8.9394  -8.9394  -8.9245  -8.9245  -8.9193  -8.9193
    -0.5358  -0.5358  -0.3368  -0.3368   0.5046   0.5046   0.8409   0.8409
     6.8431   6.8431   7.4628   7.4628   8.4796   8.4796   8.4825   8.4825
     8.7799   8.7799   8.8429   8.8429   9.2301   9.2301   9.2662   9.2662
     9.6319   9.6319   9.6338   9.6338   9.7501   9.7501   9.8432   9.8432
    10.9579  10.9579  11.4280  11.4280  12.7262  12.7262  12.8777  12.8777
    13.8360  13.8360  14.0248  14.0248  14.7760  14.7760  15.1852  15.1852
    16.2382  16.2382  16.6525  16.6525  18.4794  18.4794  18.6311  18.6311

          k = 0.2000 0.0000 0.0767 (  8022 PWs)   bands (ev):

   -11.9964 -11.9964 -11.9945 -11.9945 -11.9921 -11.9921 -11.9915 -11.9915
   -11.9820 -11.9820 -11.9795 -11.9795 -11.9706 -11.9706 -11.9669 -11.9669
    -9.0401  -9.0401  -9.0391  -9.0391  -9.0361  -9.0361  -9.0352  -9.0352
    -9.0089  -9.0089  -9.0055  -9.0055  -8.9790  -8.9790  -8.9742  -8.9742
    -8.9468  -8.9468  -8.9424  -8.9424  -8.9315  -8.9315  -8.9249  -8.9249
    -0.3557  -0.3557  -0.0990  -0.0990   0.6077   0.6077   1.0259   1.0259
     6.9765   6.9765   7.6940   7.6940   8.4192   8.4192   8.4418   8.4418
     8.6719   8.6719   8.7840   8.7840   9.1816   9.1816   9.2273   9.2273
     9.5328   9.5328   9.5385   9.5385   9.7122   9.7122   9.7855   9.7855
    10.7872  10.7872  10.9946  10.9946  12.0300  12.0300  12.2784  12.2784
    13.1703  13.1703  14.0504  14.0504  14.9702  14.9702  15.4905  15.4905
    16.2487  16.2487  16.6185  16.6185  17.7541  17.7541  18.5258  18.5258

          k = 0.2500 0.0000 0.0639 (  8030 PWs)   bands (ev):

   -11.9965 -11.9965 -11.9939 -11.9939 -11.9913 -11.9913 -11.9899 -11.9899
   -11.9760 -11.9760 -11.9739 -11.9739 -11.9678 -11.9678 -11.9644 -11.9644
    -9.0383  -9.0383  -9.0369  -9.0369  -9.0303  -9.0303  -9.0290  -9.0290
    -8.9961  -8.9961  -8.9927  -8.9927  -8.9802  -8.9802  -8.9734  -8.9734
    -8.9451  -8.9451  -8.9429  -8.9429  -8.9364  -8.9364  -8.9304  -8.9304
    -0.1224  -0.1224   0.1824   0.1824   0.7526   0.7526   1.2259   1.2259
     7.1743   7.1743   7.8169   7.8169   8.2049   8.2049   8.2646   8.2646
     8.6135   8.6135   8.7120   8.7120   9.0937   9.0937   9.1427   9.1427
     9.4753   9.4753   9.4768   9.4768   9.6489   9.6489   9.6520   9.6520
    10.5793  10.5793  10.8497  10.8497  11.2227  11.2227  11.7501  11.7501
    12.7353  12.7353  14.2584  14.2584  15.2628  15.2628  15.7794  15.7794
    16.4148  16.4148  16.4273  16.4273  17.1706  17.1706  18.2457  18.2457

          k = 0.3000 0.0000 0.0511 (  8034 PWs)   bands (ev):

   -11.9968 -11.9968 -11.9939 -11.9939 -11.9912 -11.9912 -11.9891 -11.9891
   -11.9701 -11.9701 -11.9683 -11.9683 -11.9641 -11.9641 -11.9613 -11.9613
    -9.0379  -9.0379  -9.0366  -9.0366  -9.0259  -9.0259  -9.0247  -9.0247
    -8.9854  -8.9854  -8.9846  -8.9846  -8.9783  -8.9783  -8.9751  -8.9751
    -8.9444  -8.9444  -8.9398  -8.9398  -8.9327  -8.9327  -8.9325  -8.9325
     0.1542   0.1542   0.4917   0.4917   0.9307   0.9307   1.4241   1.4241
     7.4129   7.4129   7.5291   7.5291   7.8825   7.8825   8.0405   8.0405
     8.6268   8.6268   8.6390   8.6390   9.0481   9.0481   9.0546   9.0546
     9.4454   9.4454   9.4569   9.4569   9.5828   9.5828   9.6077   9.6077
    10.1299  10.1299  10.7437  10.7437  10.9042  10.9042  11.2803  11.2803
    12.5399  12.5399  14.4724  14.4724  15.5386  15.5386  15.9707  15.9707
    16.0217  16.0217  16.7062  16.7062  17.0031  17.0031  17.9247  17.9247

          k = 0.3500 0.0000 0.0383 (  8029 PWs)   bands (ev):

   -11.9968 -11.9968 -11.9942 -11.9942 -11.9914 -11.9914 -11.9892 -11.9892
   -11.9645 -11.9645 -11.9634 -11.9634 -11.9602 -11.9602 -11.9585 -11.9585
    -9.0381  -9.0381  -9.0371  -9.0371  -9.0235  -9.0235  -9.0226  -9.0226
    -8.9897  -8.9897  -8.9839  -8.9839  -8.9714  -8.9714  -8.9679  -8.9679
    -8.9435  -8.9435  -8.9394  -8.9394  -8.9251  -8.9251  -8.9237  -8.9237
     0.4573   0.4573   0.8002   0.8002   1.1300   1.1300   1.5975   1.5975
     7.0031   7.0031   7.3382   7.3382   7.6781   7.6781   7.9283   7.9283
     8.5313   8.5313   8.7081   8.7081   8.9915   8.9915   9.0432   9.0432
     9.4274   9.4274   9.4673   9.4673   9.5237   9.5237   9.5679   9.5679
     9.7584   9.7584  10.5201  10.5201  10.6038  10.6038  11.2579  11.2579
    12.5467  12.5467  14.5674  14.5674  15.3613  15.3613  16.0997  16.0997
    16.1575  16.1575  16.9071  16.9071  16.9624  16.9624  17.6007  17.6007

          k = 0.4000 0.0000 0.0256 (  8061 PWs)   bands (ev):

   -11.9968 -11.9968 -11.9948 -11.9948 -11.9915 -11.9915 -11.9898 -11.9898
   -11.9605 -11.9605 -11.9596 -11.9596 -11.9572 -11.9572 -11.9565 -11.9565
    -9.0388  -9.0388  -9.0381  -9.0381  -9.0230  -9.0230  -9.0224  -9.0224
    -8.9926  -8.9926  -8.9880  -8.9880  -8.9678  -8.9678  -8.9633  -8.9633
    -8.9387  -8.9387  -8.9369  -8.9369  -8.9161  -8.9161  -8.9154  -8.9154
     0.7589   0.7589   1.0563   1.0563   1.3393   1.3393   1.7176   1.7176
     6.5389   6.5389   6.8341   6.8341   7.7737   7.7737   7.7975   7.7975
     8.5063   8.5063   8.7479   8.7479   8.9535   8.9535   9.0387   9.0387
     9.3027   9.3027   9.4623   9.4623   9.4873   9.4873   9.5634   9.5634
     9.7035   9.7035  10.1838  10.1838  10.5839  10.5839  11.1438  11.1438
    12.8149  12.8149  14.4717  14.4717  15.1588  15.1588  16.1233  16.1233
    16.5342  16.5342  16.8003  16.8003  16.9191  16.9191  17.3284  17.3284

          k = 0.4500 0.0000 0.0128 (  8063 PWs)   bands (ev):

   -11.9966 -11.9966 -11.9954 -11.9954 -11.9913 -11.9913 -11.9906 -11.9906
   -11.9576 -11.9576 -11.9571 -11.9571 -11.9554 -11.9554 -11.9551 -11.9551
    -9.0394  -9.0394  -9.0389  -9.0389  -9.0232  -9.0232  -9.0231  -9.0231
    -8.9935  -8.9935  -8.9912  -8.9912  -8.9661  -8.9661  -8.9633  -8.9633
    -8.9337  -8.9337  -8.9330  -8.9330  -8.9098  -8.9098  -8.9095  -8.9095
     1.0163   1.0163   1.1925   1.1925   1.5425   1.5425   1.7556   1.7556
     6.2554   6.2554   6.4298   6.4298   7.6897   7.6897   7.7065   7.7065
     8.6075   8.6075   8.7426   8.7426   8.9626   8.9626   9.0270   9.0270
     9.2270   9.2270   9.3524   9.3524   9.5719   9.5719   9.6029   9.6029
     9.7202   9.7202   9.9936   9.9936  10.6178  10.6178  10.9082  10.9082
    13.2675  13.2675  14.1894  14.1894  15.1779  15.1779  15.8249  15.8249
    16.6915  16.6915  16.8238  16.8238  16.9088  16.9088  17.2554  17.2554

          k = 0.5000 0.0000 0.0000 (  8056 PWs)   bands (ev):

   -11.9960 -11.9960 -11.9960 -11.9960 -11.9910 -11.9910 -11.9910 -11.9910
   -11.9563 -11.9563 -11.9563 -11.9563 -11.9548 -11.9548 -11.9548 -11.9548
    -9.0394  -9.0394  -9.0394  -9.0394  -9.0234  -9.0234  -9.0234  -9.0234
    -8.9930  -8.9930  -8.9930  -8.9930  -8.9646  -8.9646  -8.9646  -8.9646
    -8.9314  -8.9314  -8.9314  -8.9314  -8.9074  -8.9074  -8.9074  -8.9074
     1.1756   1.1756   1.1756   1.1756   1.6945   1.6945   1.6945   1.6945
     6.2179   6.2179   6.2179   6.2179   7.6524   7.6524   7.6524   7.6524
     8.6977   8.6977   8.6977   8.6977   9.0010   9.0010   9.0010   9.0010
     9.2521   9.2521   9.2522   9.2522   9.6246   9.6246   9.6247   9.6247
     9.8299   9.8299   9.8299   9.8299  10.7143  10.7143  10.7144  10.7144
    13.7636  13.7636  13.7636  13.7636  15.4194  15.4194  15.4195  15.4195
    16.7541  16.7541  16.7541  16.7541  17.1384  17.1384  17.1384  17.1384

          k = 0.4750 0.0250 0.0000 (  8056 PWs)   bands (ev):

   -11.9961 -11.9961 -11.9956 -11.9956 -11.9909 -11.9909 -11.9905 -11.9905
   -11.9567 -11.9567 -11.9565 -11.9565 -11.9549 -11.9549 -11.9549 -11.9549
    -9.0390  -9.0390  -9.0388  -9.0388  -9.0227  -9.0227  -9.0227  -9.0227
    -8.9935  -8.9935  -8.9923  -8.9923  -8.9653  -8.9653  -8.9639  -8.9639
    -8.9322  -8.9322  -8.9320  -8.9320  -8.9081  -8.9081  -8.9080  -8.9080
     1.1171   1.1171   1.2091   1.2091   1.6349   1.6349   1.7448   1.7448
     6.2128   6.2128   6.3035   6.3035   7.6597   7.6597   7.6682   7.6682
     8.6562   8.6562   8.7248   8.7248   8.9788   8.9788   9.0073   9.0073
     9.2195   9.2195   9.2893   9.2893   9.6216   9.6216   9.6278   9.6278
     9.7808   9.7808   9.9328   9.9328  10.6560  10.6560  10.8023  10.8023
    13.5150  13.5150  13.9863  13.9863  15.2598  15.2598  15.5973  15.5973
    16.6546  16.6546  16.7375  16.7375  16.9425  16.9425  17.1134  17.1134

          k = 0.4500 0.0500 0.0000 (  8059 PWs)   bands (ev):

   -11.9959 -11.9959 -11.9948 -11.9948 -11.9903 -11.9903 -11.9895 -11.9895
   -11.9575 -11.9575 -11.9572 -11.9572 -11.9554 -11.9554 -11.9552 -11.9552
    -9.0375  -9.0375  -9.0372  -9.0372  -9.0207  -9.0207  -9.0206  -9.0206
    -8.9939  -8.9939  -8.9915  -8.9915  -8.9662  -8.9662  -8.9634  -8.9634
    -8.9343  -8.9343  -8.9338  -8.9338  -8.9103  -8.9103  -8.9100  -8.9100
     1.0388   1.0388   1.2162   1.2162   1.5686   1.5686   1.7841   1.7841
     6.2901   6.2901   6.4620   6.4620   7.6924   7.6924   7.7004   7.7004
     8.5913   8.5913   8.7426   8.7426   8.9618   8.9618   8.9889   8.9889
     9.1988   9.1988   9.3302   9.3302   9.6211   9.6211   9.6449   9.6449
     9.7878   9.7878  10.0542  10.0542  10.6178  10.6178  10.9312  10.9312
    13.2557  13.2557  14.1634  14.1634  15.1215  15.1215  15.7512  15.7512
    16.4721  16.4721  16.5648  16.5648  16.6310  16.6310  16.8951  16.8951

          k = 0.4250 0.0750 0.0000 (  8063 PWs)   bands (ev):

   -11.9953 -11.9953 -11.9935 -11.9935 -11.9892 -11.9892 -11.9881 -11.9881
   -11.9589 -11.9589 -11.9583 -11.9583 -11.9562 -11.9562 -11.9559 -11.9559
    -9.0351  -9.0351  -9.0344  -9.0344  -9.0175  -9.0175  -9.0174  -9.0174
    -8.9942  -8.9942  -8.9906  -8.9906  -8.9672  -8.9672  -8.9629  -8.9629
    -8.9378  -8.9378  -8.9368  -8.9368  -8.9138  -8.9138  -8.9133  -8.9133
     0.9481   0.9481   1.1995   1.1995   1.4987   1.4987   1.8122   1.8122
     6.4465   6.4465   6.6809   6.6809   7.7377   7.7377   7.7494   7.7494
     8.5064   8.5064   8.7463   8.7463   8.9629   8.9629   8.9640   8.9640
     9.2121   9.2121   9.3568   9.3568   9.6294   9.6294   9.6795   9.6795
     9.8260   9.8260  10.1803  10.1803  10.5971  10.5971  11.0988  11.0988
    12.9987  12.9987  14.2669  14.2669  14.9819  14.9819  15.7023  15.7023
    16.1636  16.1636  16.3359  16.3359  16.3998  16.3998  16.6255  16.6255

          k = 0.4000 0.1000 0.0000 (  8051 PWs)   bands (ev):

   -11.9942 -11.9942 -11.9919 -11.9919 -11.9875 -11.9875 -11.9861 -11.9861
   -11.9604 -11.9604 -11.9598 -11.9598 -11.9574 -11.9574 -11.9568 -11.9568
    -9.0316  -9.0316  -9.0308  -9.0308  -9.0130  -9.0130  -9.0129  -9.0129
    -8.9943  -8.9943  -8.9895  -8.9895  -8.9680  -8.9680  -8.9627  -8.9627
    -8.9421  -8.9421  -8.9410  -8.9410  -8.9184  -8.9184  -8.9176  -8.9176
     0.8527   0.8527   1.1648   1.1648   1.4290   1.4290   1.8301   1.8301
     6.6731   6.6731   6.9427   6.9427   7.7670   7.7670   7.8276   7.8276
     8.4235   8.4235   8.7250   8.7250   8.9567   8.9567   8.9839   8.9839
     9.2651   9.2651   9.3626   9.3626   9.6381   9.6381   9.7058   9.7058
     9.8892   9.8892  10.3298  10.3298  10.5985  10.5985  11.2816  11.2816
    12.7580  12.7580  14.2564  14.2564  14.7741  14.7741  15.3401  15.3401
    15.8387  15.8387  16.0873  16.0873  16.1036  16.1036  16.6941  16.6941

          k = 0.3750 0.1250 0.0000 (  8057 PWs)   bands (ev):

   -11.9930 -11.9930 -11.9901 -11.9901 -11.9855 -11.9855 -11.9838 -11.9838
   -11.9623 -11.9623 -11.9617 -11.9617 -11.9589 -11.9589 -11.9581 -11.9581
    -9.0275  -9.0275  -9.0264  -9.0264  -9.0076  -9.0076  -9.0075  -9.0075
    -8.9942  -8.9942  -8.9885  -8.9885  -8.9689  -8.9689  -8.9628  -8.9628
    -8.9474  -8.9474  -8.9462  -8.9462  -8.9241  -8.9241  -8.9231  -8.9231
     0.7603   0.7603   1.1197   1.1197   1.3630   1.3630   1.8393   1.8393
     6.9575   6.9575   7.2176   7.2176   7.7879   7.7879   7.9223   7.9223
     8.3665   8.3665   8.6821   8.6821   8.9684   8.9684   9.0175   9.0175
     9.3436   9.3436   9.3589   9.3589   9.6341   9.6341   9.6958   9.6958
     9.9936   9.9936  10.5175  10.5175  10.6305  10.6305  11.4397  11.4397
    12.5532  12.5532  14.0864  14.0864  14.4386  14.4386  14.8430  14.8430
    15.6662  15.6662  15.7942  15.7942  15.8059  15.8059  16.9720  16.9720

          k = 0.3500 0.1500 0.0000 (  8046 PWs)   bands (ev):

   -11.9913 -11.9913 -11.9880 -11.9880 -11.9832 -11.9832 -11.9812 -11.9812
   -11.9642 -11.9642 -11.9639 -11.9639 -11.9607 -11.9607 -11.9597 -11.9597
    -9.0224  -9.0224  -9.0212  -9.0212  -9.0017  -9.0017  -9.0013  -9.0013
    -8.9937  -8.9937  -8.9871  -8.9871  -8.9696  -8.9696  -8.9634  -8.9634
    -8.9533  -8.9533  -8.9517  -8.9517  -8.9306  -8.9306  -8.9293  -8.9293
     0.6768   0.6768   1.0717   1.0717   1.3042   1.3042   1.8424   1.8424
     7.2831   7.2831   7.4353   7.4353   7.8513   7.8513   8.0279   8.0279
     8.3444   8.3444   8.6332   8.6332   8.9806   8.9806   9.0509   9.0509
     9.3596   9.3596   9.4252   9.4252   9.6106   9.6106   9.6465   9.6465
    10.1612  10.1612  10.7038  10.7038  10.7285  10.7285  11.5243  11.5243
    12.4178  12.4178  13.7483  13.7483  14.0428  14.0428  14.3074  14.3074
    15.3195  15.3195  15.5920  15.5920  15.8398  15.8398  17.2937  17.2937

          k = 0.3250 0.1750 0.0000 (  8046 PWs)   bands (ev):

   -11.9897 -11.9897 -11.9858 -11.9858 -11.9808 -11.9808 -11.9785 -11.9785
   -11.9663 -11.9663 -11.9662 -11.9662 -11.9627 -11.9627 -11.9615 -11.9615
    -9.0172  -9.0172  -9.0156  -9.0156  -8.9963  -8.9963  -8.9957  -8.9957
    -8.9913  -8.9913  -8.9853  -8.9853  -8.9703  -8.9703  -8.9652  -8.9652
    -8.9594  -8.9594  -8.9567  -8.9567  -8.9377  -8.9377  -8.9361  -8.9361
     0.6073   0.6073   1.0275   1.0275   1.2554   1.2554   1.8416   1.8416
     7.5056   7.5056   7.6277   7.6277   8.0326   8.0326   8.1373   8.1373
     8.3569   8.3569   8.5903   8.5903   8.9754   8.9754   9.0669   9.0669
     9.3690   9.3690   9.4914   9.4914   9.5735   9.5735   9.5759   9.5759
    10.3953  10.3953  10.8301  10.8301  10.9216  10.9216  11.5045  11.5045
    12.3881  12.3881  13.2987  13.2987  13.6868  13.6868  13.7796  13.7796
    14.9185  14.9185  15.4711  15.4711  16.0529  16.0529  17.6100  17.6100

          k = 0.3000 0.2000 0.0000 (  8037 PWs)   bands (ev):

   -11.9881 -11.9881 -11.9834 -11.9834 -11.9783 -11.9783 -11.9757 -11.9757
   -11.9686 -11.9686 -11.9681 -11.9681 -11.9647 -11.9647 -11.9636 -11.9636
    -9.0121  -9.0121  -9.0101  -9.0101  -8.9946  -8.9946  -8.9909  -8.9909
    -8.9849  -8.9849  -8.9823  -8.9823  -8.9715  -8.9715  -8.9691  -8.9691
    -8.9649  -8.9649  -8.9599  -8.9599  -8.9447  -8.9447  -8.9430  -8.9430
     0.5552   0.5552   0.9923   0.9923   1.2189   1.2189   1.8392   1.8392
     7.4958   7.4958   7.9554   7.9554   8.2122   8.2122   8.2426   8.2426
     8.4383   8.4383   8.5649   8.5649   8.9474   8.9474   9.0449   9.0449
     9.3481   9.3481   9.5097   9.5097   9.5242   9.5242   9.5728   9.5728
    10.6692  10.6692  11.0179  11.0179  11.0275  11.0275  11.4390  11.4390
    12.4571  12.4571  12.8164  12.8164  13.2977  13.2977  13.4236  13.4236
    14.5428  14.5428  15.3993  15.3993  16.3623  16.3623  17.8742  17.8742

          k = 0.2750 0.2250 0.0000 (  8051 PWs)   bands (ev):

   -11.9870 -11.9870 -11.9815 -11.9815 -11.9760 -11.9760 -11.9733 -11.9733
   -11.9710 -11.9710 -11.9694 -11.9694 -11.9666 -11.9666 -11.9658 -11.9658
    -9.0081  -9.0081  -9.0058  -9.0058  -8.9936  -8.9936  -8.9882  -8.9882
    -8.9784  -8.9784  -8.9778  -8.9778  -8.9737  -8.9737  -8.9736  -8.9736
    -8.9678  -8.9678  -8.9628  -8.9628  -8.9504  -8.9504  -8.9490  -8.9490
     0.5230   0.5230   0.9697   0.9697   1.1964   1.1964   1.8371   1.8371
     7.4765   7.4765   8.1942   8.1942   8.2732   8.2732   8.3322   8.3322
     8.5820   8.5820   8.6160   8.6160   8.9024   8.9024   8.9719   8.9719
     9.2606   9.2606   9.4909   9.4909   9.5385   9.5385   9.6016   9.6016
    10.9208  10.9208  11.0065  11.0065  11.2526  11.2526  11.4242  11.4242
    12.3815  12.3815  12.5746  12.5746  12.9219  12.9219  13.2612  13.2612
    14.2544  14.2544  15.3598  15.3598  16.7103  16.7103  18.0425  18.0425

          k = 0.2500 0.2500 0.0000 (  8043 PWs)   bands (ev):

   -11.9864 -11.9864 -11.9806 -11.9806 -11.9749 -11.9749 -11.9724 -11.9724
   -11.9720 -11.9720 -11.9696 -11.9696 -11.9676 -11.9676 -11.9667 -11.9667
    -9.0064  -9.0064  -9.0041  -9.0041  -8.9931  -8.9931  -8.9870  -8.9870
    -8.9771  -8.9771  -8.9765  -8.9765  -8.9742  -8.9742  -8.9725  -8.9725
    -8.9682  -8.9682  -8.9659  -8.9659  -8.9526  -8.9526  -8.9515  -8.9515
     0.5121   0.5121   0.9620   0.9620   1.1887   1.1887   1.8363   1.8363
     7.4686   7.4686   8.2707   8.2707   8.2845   8.2845   8.3682   8.3682
     8.6305   8.6305   8.7421   8.7421   8.8669   8.8669   8.8918   8.8918
     9.2060   9.2060   9.4834   9.4834   9.5535   9.5535   9.6136   9.6136
    10.9731  10.9731  11.0338  11.0338  11.4015  11.4015  11.4306  11.4306
    12.1621  12.1621  12.6414  12.6414  12.7676  12.7676  13.2006  13.2006
    14.1406  14.1406  15.3469  15.3469  16.9129  16.9129  17.9206  17.9206

          k = 0.2250 0.2250 0.0000 (  8051 PWs)   bands (ev):

   -11.9876 -11.9876 -11.9812 -11.9812 -11.9780 -11.9780 -11.9758 -11.9758
   -11.9755 -11.9755 -11.9737 -11.9737 -11.9703 -11.9703 -11.9671 -11.9671
    -9.0096  -9.0096  -9.0066  -9.0066  -8.9986  -8.9986  -8.9953  -8.9953
    -8.9888  -8.9888  -8.9876  -8.9876  -8.9730  -8.9730  -8.9680  -8.9680
    -8.9673  -8.9673  -8.9654  -8.9654  -8.9545  -8.9545  -8.9488  -8.9488
     0.2662   0.2662   0.7464   0.7464   0.9571   0.9571   1.6543   1.6543
     7.3609   7.3609   8.3824   8.3824   8.4184   8.4184   8.4903   8.4903
     8.6080   8.6080   8.7260   8.7260   8.7708   8.7708   8.8979   8.8979
     9.1577   9.1577   9.4782   9.4782   9.6586   9.6586   9.6616   9.6616
    11.1461  11.1461  11.1942  11.1942  11.5267  11.5267  11.8212  11.8212
    12.4196  12.4196  12.4399  12.4399  13.0222  13.0222  13.2380  13.2380
    14.3765  14.3765  15.4261  15.4261  17.1574  17.1574  18.2908  18.2908

          k = 0.2000 0.2000 0.0000 (  8025 PWs)   bands (ev):

   -11.9888 -11.9888 -11.9826 -11.9826 -11.9805 -11.9805 -11.9797 -11.9797
   -11.9785 -11.9785 -11.9779 -11.9779 -11.9721 -11.9721 -11.9673 -11.9673
    -9.0136  -9.0136  -9.0113  -9.0113  -9.0069  -9.0069  -9.0056  -9.0056
    -9.0008  -9.0008  -8.9982  -8.9982  -8.9703  -8.9703  -8.9685  -8.9685
    -8.9653  -8.9653  -8.9601  -8.9601  -8.9526  -8.9526  -8.9419  -8.9419
     0.0371   0.0371   0.5415   0.5415   0.7461   0.7461   1.4875   1.4875
     7.1968   7.1968   8.4254   8.4254   8.5306   8.5306   8.5476   8.5476
     8.6408   8.6408   8.6952   8.6952   8.6984   8.6984   8.9872   8.9872
     9.1766   9.1766   9.4621   9.4621   9.6888   9.6888   9.7692   9.7692
    11.2060  11.2060  11.3974  11.3974  11.7143  11.7143  12.1642  12.1642
    12.3870  12.3870  12.7583  12.7583  13.3125  13.3125  13.3290  13.3290
    14.6668  14.6668  15.4668  15.4668  17.4420  17.4420  18.6764  18.6764

          k = 0.1750 0.1750 0.0000 (  8017 PWs)   bands (ev):

   -11.9902 -11.9902 -11.9859 -11.9859 -11.9834 -11.9834 -11.9823 -11.9823
   -11.9820 -11.9820 -11.9810 -11.9810 -11.9736 -11.9736 -11.9673 -11.9673
    -9.0197  -9.0197  -9.0194  -9.0194  -9.0149  -9.0149  -9.0144  -9.0144
    -9.0115  -9.0115  -9.0059  -9.0059  -8.9739  -8.9739  -8.9679  -8.9679
    -8.9626  -8.9626  -8.9519  -8.9519  -8.9477  -8.9477  -8.9345  -8.9345
    -0.1716  -0.1716   0.3516   0.3516   0.5573   0.5573   1.3376   1.3376
     7.0076   7.0076   8.3501   8.3501   8.5497   8.5497   8.5853   8.5853
     8.6614   8.6614   8.7013   8.7013   8.7645   8.7645   9.1075   9.1075
     9.2600   9.2600   9.4511   9.4511   9.7039   9.7039   9.8793   9.8793
    11.1122  11.1122  11.5856  11.5856  12.0011  12.0011  12.2944  12.2944
    12.7150  12.7150  13.1053  13.1053  13.5053  13.5053  13.6350  13.6350
    15.0054  15.0054  15.4831  15.4831  17.7670  17.7670  19.0714  19.0714

          k = 0.1500 0.1500 0.0000 (  8011 PWs)   bands (ev):

   -11.9916 -11.9916 -11.9893 -11.9893 -11.9871 -11.9871 -11.9859 -11.9859
   -11.9857 -11.9857 -11.9818 -11.9818 -11.9746 -11.9746 -11.9674 -11.9674
    -9.0288  -9.0288  -9.0276  -9.0276  -9.0237  -9.0237  -9.0234  -9.0234
    -9.0180  -9.0180  -9.0105  -9.0105  -8.9774  -8.9774  -8.9710  -8.9710
    -8.9565  -8.9565  -8.9442  -8.9442  -8.9425  -8.9425  -8.9277  -8.9277
    -0.3569  -0.3569   0.1807   0.1807   0.3917   0.3917   1.2057   1.2057
     6.8181   6.8181   8.2318   8.2318   8.5469   8.5469   8.5680   8.5680
     8.6601   8.6601   8.7625   8.7625   8.8772   8.8772   9.2093   9.2093
     9.3804   9.3804   9.4708   9.4708   9.7137   9.7137   9.9809   9.9809
    10.9249  10.9249  11.7579  11.7579  12.3669  12.3669  12.4453  12.4453
    13.0873  13.0873  13.4724  13.4724  13.7869  13.7869  13.9820  13.9820
    15.3888  15.3888  15.4967  15.4967  18.1300  18.1300  19.1908  19.1908

          k = 0.1250 0.1250 0.0000 (  8015 PWs)   bands (ev):

   -11.9932 -11.9932 -11.9924 -11.9924 -11.9905 -11.9905 -11.9891 -11.9891
   -11.9890 -11.9890 -11.9825 -11.9825 -11.9755 -11.9755 -11.9676 -11.9676
    -9.0370  -9.0370  -9.0357  -9.0357  -9.0325  -9.0325  -9.0325  -9.0325
    -9.0218  -9.0218  -9.0138  -9.0138  -8.9806  -8.9806  -8.9738  -8.9738
    -8.9509  -8.9509  -8.9378  -8.9378  -8.9373  -8.9373  -8.9217  -8.9217
    -0.5169  -0.5169   0.0316   0.0316   0.2503   0.2503   1.0929   1.0929
     6.6434   6.6434   8.1151   8.1151   8.5270   8.5270   8.5369   8.5369
     8.6921   8.6921   8.8205   8.8205   8.9742   8.9742   9.2617   9.2617
     9.5066   9.5066   9.5386   9.5386   9.7210   9.7210  10.0551  10.0551
    10.7268  10.7268  11.9269  11.9269  12.6172  12.6172  12.7781  12.7781
    13.4435  13.4435  13.8529  13.8529  14.1508  14.1508  14.3368  14.3368
    15.5349  15.5349  15.8140  15.8140  18.5229  18.5229  18.8396  18.8396

          k = 0.1000 0.1000 0.0000 (  8015 PWs)   bands (ev):

   -11.9953 -11.9953 -11.9950 -11.9950 -11.9932 -11.9932 -11.9922 -11.9922
   -11.9914 -11.9914 -11.9832 -11.9832 -11.9763 -11.9763 -11.9676 -11.9676
    -9.0440  -9.0440  -9.0426  -9.0426  -9.0401  -9.0401  -9.0401  -9.0401
    -9.0248  -9.0248  -9.0165  -9.0165  -8.9834  -8.9834  -8.9762  -8.9762
    -8.9461  -8.9461  -8.9336  -8.9336  -8.9311  -8.9311  -8.9167  -8.9167
    -0.6497  -0.6497  -0.0932  -0.0932   0.1338   0.1338   0.9998   0.9998
     6.4927   6.4927   8.0124   8.0124   8.5032   8.5032   8.5080   8.5080
     8.7472   8.7472   8.8610   8.8610   9.0571   9.0571   9.2839   9.2839
     9.6180   9.6180   9.6262   9.6262   9.7271   9.7271  10.0552  10.0552
    10.5912  10.5912  12.0883  12.0883  12.7912  12.7912  13.2140  13.2140
    13.7951  13.7951  14.2401  14.2401  14.5432  14.5432  14.6655  14.6655
    15.6336  15.6336  16.2761  16.2761  18.4081  18.4081  18.9119  18.9119

          k = 0.0750 0.0750 0.0000 (  8009 PWs)   bands (ev):

   -11.9976 -11.9976 -11.9970 -11.9970 -11.9953 -11.9953 -11.9948 -11.9948
   -11.9928 -11.9928 -11.9836 -11.9836 -11.9769 -11.9769 -11.9676 -11.9676
    -9.0496  -9.0496  -9.0482  -9.0482  -9.0463  -9.0463  -9.0462  -9.0462
    -9.0272  -9.0272  -9.0185  -9.0185  -8.9857  -8.9857  -8.9782  -8.9782
    -8.9422  -8.9422  -8.9302  -8.9302  -8.9261  -8.9261  -8.9126  -8.9126
    -0.7541  -0.7541  -0.1920  -0.1920   0.0427   0.0427   0.9270   0.9270
     6.3713   6.3713   7.9289   7.9289   8.4820   8.4820   8.4841   8.4841
     8.8183   8.8183   8.8853   8.8853   9.1298   9.1298   9.2990   9.2990
     9.7010   9.7010   9.7053   9.7053   9.7347   9.7347   9.9446   9.9446
    10.5617  10.5617  12.2293  12.2293  12.9586  12.9586  13.6570  13.6570
    14.1379  14.1379  14.6247  14.6247  14.9122  14.9122  14.9145  14.9145
    15.8312  15.8312  16.7660  16.7660  17.9219  17.9219  19.0640  19.0640

          k = 0.0500 0.0500 0.0000 (  8021 PWs)   bands (ev):

   -11.9992 -11.9992 -11.9989 -11.9989 -11.9971 -11.9971 -11.9967 -11.9967
   -11.9938 -11.9938 -11.9840 -11.9840 -11.9773 -11.9773 -11.9677 -11.9677
    -9.0535  -9.0535  -9.0525  -9.0525  -9.0510  -9.0510  -9.0508  -9.0508
    -9.0290  -9.0290  -9.0200  -9.0200  -8.9872  -8.9872  -8.9796  -8.9796
    -8.9391  -8.9391  -8.9279  -8.9279  -8.9225  -8.9225  -8.9097  -8.9097
    -0.8293  -0.8293  -0.2635  -0.2635  -0.0226  -0.0226   0.8747   0.8747
     6.2827   6.2827   7.8675   7.8675   8.4659   8.4659   8.4665   8.4665
     8.8945   8.8945   8.8980   8.8980   9.2004   9.2004   9.3117   9.3117
     9.7283   9.7283   9.7640   9.7640   9.7682   9.7682   9.7787   9.7787
    10.5873  10.5873  12.3369  12.3369  13.1051  13.1051  14.0804  14.0804
    14.4467  14.4467  14.9608  14.9608  15.0807  15.0807  15.2123  15.2123
    16.1178  16.1178  17.2614  17.2614  17.4262  17.4262  18.7649  18.7649

          k = 0.0250 0.0250 0.0000 (  8019 PWs)   bands (ev):

   -12.0003 -12.0003 -12.0001 -12.0001 -11.9980 -11.9980 -11.9980 -11.9980
   -11.9943 -11.9943 -11.9843 -11.9843 -11.9774 -11.9774 -11.9676 -11.9676
    -9.0558  -9.0558  -9.0550  -9.0550  -9.0539  -9.0539  -9.0534  -9.0534
    -9.0302  -9.0302  -9.0209  -9.0209  -8.9881  -8.9881  -8.9804  -8.9804
    -8.9372  -8.9372  -8.9265  -8.9265  -8.9202  -8.9202  -8.9080  -8.9080
    -0.8747  -0.8747  -0.3068  -0.3068  -0.0619  -0.0619   0.8433   0.8433
     6.2288   6.2288   7.8301   7.8301   8.4558   8.4558   8.4559   8.4559
     8.9037   8.9037   8.9557   8.9557   9.2807   9.2807   9.3206   9.3206
     9.6092   9.6092   9.7319   9.7319   9.8012   9.8012   9.8027   9.8027
    10.6152  10.6152  12.4034  12.4034  13.2081  13.2081  14.4326  14.4326
    14.6753  14.6753  15.0327  15.0327  15.3533  15.3533  15.4039  15.4039
    16.3979  16.3979  16.9990  16.9990  17.7005  17.7005  18.4900  18.4900

          k = 0.0000 0.0000 0.0000 (  8029 PWs)   bands (ev):

   -12.0007 -12.0007 -12.0006 -12.0006 -11.9984 -11.9984 -11.9984 -11.9984
   -11.9946 -11.9946 -11.9844 -11.9844 -11.9775 -11.9775 -11.9677 -11.9677
    -9.0566  -9.0566  -9.0560  -9.0560  -9.0549  -9.0549  -9.0543  -9.0543
    -9.0307  -9.0307  -9.0212  -9.0212  -8.9885  -8.9885  -8.9808  -8.9808
    -8.9366  -8.9366  -8.9261  -8.9261  -8.9195  -8.9195  -8.9074  -8.9074
    -0.8898  -0.8898  -0.3213  -0.3213  -0.0750  -0.0750   0.8328   0.8328
     6.2107   6.2107   7.8175   7.8175   8.4522   8.4522   8.4525   8.4525
     8.9052   8.9052   8.9791   8.9791   9.3238   9.3238   9.3435   9.3435
     9.5131   9.5131   9.7328   9.7328   9.8125   9.8125   9.8144   9.8144
    10.6259  10.6259  12.4257  12.4257  13.2455  13.2455  14.5946  14.5946
    14.7628  14.7628  15.0087  15.0087  15.4680  15.4680  15.5038  15.5038
    16.5217  16.5217  16.8058  16.8058  17.9056  17.9056  18.3896  18.3896

     Writing all to output data dir ./Bi2Pd/Bi2Pd.save/
 
     init_run     :      0.94s CPU      1.12s WALL (       1 calls)
     electrons    :    171.38s CPU    174.77s WALL (       1 calls)

     Called by init_run:
     wfcinit      :      0.00s CPU      0.00s WALL (       1 calls)
     wfcinit:atom :      0.08s CPU      0.11s WALL (      41 calls)
     wfcinit:wfcr :      5.64s CPU      5.78s WALL (      41 calls)
     potinit      :      0.02s CPU      0.03s WALL (       1 calls)
     hinit0       :      0.25s CPU      0.26s WALL (       1 calls)

     Called by electrons:
     c_bands      :    171.38s CPU    174.77s WALL (       1 calls)
     v_of_rho     :      0.00s CPU      0.01s WALL (       1 calls)
     v_h          :      0.00s CPU      0.00s WALL (       1 calls)
     v_xc         :      0.00s CPU      0.00s WALL (       1 calls)
     newd         :      0.63s CPU      0.81s WALL (       1 calls)

     Called by c_bands:
     init_us_2    :      0.05s CPU      0.06s WALL (      41 calls)
     init_us_2:cp :      0.04s CPU      0.06s WALL (      41 calls)
     cegterg      :    163.18s CPU    166.33s WALL (      96 calls)

     Called by sum_band:

     Called by *egterg:
     cdiaghg      :     10.05s CPU     10.10s WALL (    1622 calls)
     cegterg:over :     19.63s CPU     20.19s WALL (    1581 calls)
     cegterg:upda :     10.92s CPU     10.95s WALL (    1581 calls)
     cegterg:last :     28.84s CPU     28.85s WALL (     864 calls)
     h_psi        :     80.93s CPU     83.15s WALL (    1718 calls)
     s_psi        :     12.42s CPU     12.55s WALL (    1718 calls)
     g_psi        :      0.62s CPU      0.62s WALL (    1581 calls)

     Called by h_psi:
     h_psi:calbec :     11.26s CPU     11.55s WALL (    1718 calls)
     vloc_psi     :     55.70s CPU     57.52s WALL (    1718 calls)
     add_vuspsi   :     12.81s CPU     12.84s WALL (    1718 calls)

     General routines
     calbec       :     11.25s CPU     11.55s WALL (    1718 calls)
     fft          :      0.02s CPU      0.02s WALL (      12 calls)
     ffts         :      0.00s CPU      0.00s WALL (       4 calls)
     fftw         :     31.70s CPU     32.73s WALL (  358616 calls)
     interpolate  :      0.00s CPU      0.01s WALL (       4 calls)
     davcio       :      0.09s CPU      0.15s WALL (      82 calls)
 
     Parallel routines
 
     PWSCF        :   2m52.80s CPU   2m56.95s WALL

 
   This run was terminated on:  14:40:12   6Jan2024            

=------------------------------------------------------------------------------=
   JOB DONE.
=------------------------------------------------------------------------------=
