
     Program PWSCF v.7.2 starts on  6Jan2024 at 13:37:57 

     This program is part of the open-source Quantum ESPRESSO suite
     for quantum simulation of materials; please cite
         "P. Giannozzi et al., J. Phys.:Condens. Matter 21 395502 (2009);
         "P. Giannozzi et al., J. Phys.:Condens. Matter 29 465901 (2017);
         "P. Giannozzi et al., J. Chem. Phys. 152 154105 (2020);
          URL http://www.quantum-espresso.org", 
     in publications or presentations arising from this work. More details at
     http://www.quantum-espresso.org/quote

     Parallel version (MPI), running on     4 processors

     MPI processes distributed on     1 nodes
     7167 MiB available memory on the printing compute node when the environment starts
 
     Waiting for input...
     Reading input from standard input

     Current dimensions of program PWSCF are:
     Max number of different atomic species (ntypx) = 10
     Max number of k-points (npk) =  40000
     Max angular momentum in pseudopotentials (lmaxx) =  4
     file Bi.rel-pz-dn-rrkjus_psl.1.0.0.UPF: wavefunction(s)  5D 5D renormalized
     file Pd.rel-pz-n-rrkjus_psl.1.0.0.UPF: wavefunction(s)  4D 4D renormalized

     Atomic positions and unit cell read from directory:
     ./Bi2Pd/Bi2Pd.save/
     Atomic positions from file used, from input discarded
 
     Found identity + (  0.5000  0.5000  0.5000) symmetry
     This is a supercell, fractional translations are disabled
 
     R & G space division:  proc/nbgrp/npool/nimage =       4
     Subspace diagonalization in iterative solution of the eigenvalue problem:
     a serial algorithm will be used

 
     Parallelization info
     --------------------
     sticks:   dense  smooth     PW     G-vecs:    dense   smooth      PW
     Min         439     194     59                54325    16096    2617
     Max         440     195     61                54338    16109    2620
     Sum        1757     777    241               217317    64403   10475
 
     Using Slab Decomposition
 


     bravais-lattice index     =            3
     lattice parameter (alat)  =       6.3999  a.u.
     unit-cell volume          =    1025.3225 (a.u.)^3
     number of atoms/cell      =            6
     number of atomic types    =            2
     number of electrons       =        80.00
     number of Kohn-Sham states=           96
     kinetic-energy cutoff     =      60.0000  Ry
     charge density cutoff     =     540.0000  Ry
     Exchange-correlation= LDA
                           (   1   1   0   0   0   0   0)
     Non magnetic calculation with spin-orbit


     celldm(1)=   6.399898  celldm(2)=   0.000000  celldm(3)=   3.911483
     celldm(4)=   0.000000  celldm(5)=   0.000000  celldm(6)=   0.000000

     crystal axes: (cart. coord. in units of alat)
               a(1) = (   1.000000   0.000000   0.000000 )  
               a(2) = (   0.000000   1.000000   0.000000 )  
               a(3) = (   0.000000   0.000000   3.911483 )  

     reciprocal axes: (cart. coord. in units 2 pi/alat)
               b(1) = (  1.000000  0.000000  0.000000 )  
               b(2) = (  0.000000  1.000000  0.000000 )  
               b(3) = (  0.000000  0.000000  0.255658 )  


     PseudoPot. # 1 for Bi read from file:
     ~/q-e/pseudo/pslibrary/rel-pz/PSEUDOPOTENTIALS/Bi.rel-pz-dn-rrkjus_psl.1.0.0.UPF
     MD5 check sum: Not computed, couldn't open file
     Pseudo is Ultrasoft + core correction, Zval = 15.0
     Generated using 'atomic' code by A. Dal Corso  v.7.2
     Using radial grid of 1283 points, 10 beta functions with: 
                l(1) =   0
                l(2) =   0
                l(3) =   1
                l(4) =   1
                l(5) =   1
                l(6) =   1
                l(7) =   2
                l(8) =   2
                l(9) =   2
               l(10) =   2
     Q(r) pseudized with 0 coefficients 


     PseudoPot. # 2 for Pd read from file:
     ~/q-e/pseudo/pslibrary/rel-pz/PSEUDOPOTENTIALS/Pd.rel-pz-n-rrkjus_psl.1.0.0.UPF
     MD5 check sum: Not computed, couldn't open file
     Pseudo is Ultrasoft + core correction, Zval = 10.0
     Generated using 'atomic' code by A. Dal Corso  v.7.2
     Using radial grid of 1235 points, 10 beta functions with: 
                l(1) =   0
                l(2) =   0
                l(3) =   1
                l(4) =   1
                l(5) =   1
                l(6) =   1
                l(7) =   2
                l(8) =   2
                l(9) =   2
               l(10) =   2
     Q(r) pseudized with 0 coefficients 


     atomic species   valence    mass     pseudopotential
     Bi               15.00   208.98000     Bi( 1.00)
     Pd               10.00   106.42000     Pd( 1.00)

     16 Sym. Ops., with inversion, found


                                    s                        frac. trans.

      isym =  1     identity                                     

 cryst.   s( 1) = (     1          0          0      )
                  (     0          1          0      )
                  (     0          0          1      )

 cart.    s( 1) = (  1.0000000  0.0000000  0.0000000 )
                  (  0.0000000  1.0000000  0.0000000 )
                  (  0.0000000  0.0000000  1.0000000 )


      isym =  2     180 deg rotation - cart. axis [0,0,1]        

 cryst.   s( 2) = (    -1          0          0      )
                  (     0         -1          0      )
                  (     0          0          1      )

 cart.    s( 2) = ( -1.0000000  0.0000000  0.0000000 )
                  (  0.0000000 -1.0000000  0.0000000 )
                  (  0.0000000  0.0000000  1.0000000 )


      isym =  3     180 deg rotation - cart. axis [0,1,0]        

 cryst.   s( 3) = (    -1          0          0      )
                  (     0          1          0      )
                  (     0          0         -1      )

 cart.    s( 3) = ( -1.0000000  0.0000000  0.0000000 )
                  (  0.0000000  1.0000000  0.0000000 )
                  (  0.0000000  0.0000000 -1.0000000 )


      isym =  4     180 deg rotation - cart. axis [1,0,0]        

 cryst.   s( 4) = (     1          0          0      )
                  (     0         -1          0      )
                  (     0          0         -1      )

 cart.    s( 4) = (  1.0000000  0.0000000  0.0000000 )
                  (  0.0000000 -1.0000000  0.0000000 )
                  (  0.0000000  0.0000000 -1.0000000 )


      isym =  5     180 deg rotation - cart. axis [1,1,0]        

 cryst.   s( 5) = (     0          1          0      )
                  (     1          0          0      )
                  (     0          0         -1      )

 cart.    s( 5) = (  0.0000000  1.0000000  0.0000000 )
                  (  1.0000000  0.0000000  0.0000000 )
                  (  0.0000000  0.0000000 -1.0000000 )


      isym =  6     180 deg rotation - cart. axis [1,-1,0]       

 cryst.   s( 6) = (     0         -1          0      )
                  (    -1          0          0      )
                  (     0          0         -1      )

 cart.    s( 6) = (  0.0000000 -1.0000000  0.0000000 )
                  ( -1.0000000  0.0000000  0.0000000 )
                  (  0.0000000  0.0000000 -1.0000000 )


      isym =  7      90 deg rotation - cart. axis [0,0,-1]       

 cryst.   s( 7) = (     0         -1          0      )
                  (     1          0          0      )
                  (     0          0          1      )

 cart.    s( 7) = (  0.0000000  1.0000000  0.0000000 )
                  ( -1.0000000  0.0000000  0.0000000 )
                  (  0.0000000  0.0000000  1.0000000 )


      isym =  8      90 deg rotation - cart. axis [0,0,1]        

 cryst.   s( 8) = (     0          1          0      )
                  (    -1          0          0      )
                  (     0          0          1      )

 cart.    s( 8) = (  0.0000000 -1.0000000  0.0000000 )
                  (  1.0000000  0.0000000  0.0000000 )
                  (  0.0000000  0.0000000  1.0000000 )


      isym =  9     inversion                                    

 cryst.   s( 9) = (    -1          0          0      )
                  (     0         -1          0      )
                  (     0          0         -1      )

 cart.    s( 9) = ( -1.0000000  0.0000000  0.0000000 )
                  (  0.0000000 -1.0000000  0.0000000 )
                  (  0.0000000  0.0000000 -1.0000000 )


      isym = 10     inv. 180 deg rotation - cart. axis [0,0,1]   

 cryst.   s(10) = (     1          0          0      )
                  (     0          1          0      )
                  (     0          0         -1      )

 cart.    s(10) = (  1.0000000  0.0000000  0.0000000 )
                  (  0.0000000  1.0000000  0.0000000 )
                  (  0.0000000  0.0000000 -1.0000000 )


      isym = 11     inv. 180 deg rotation - cart. axis [0,1,0]   

 cryst.   s(11) = (     1          0          0      )
                  (     0         -1          0      )
                  (     0          0          1      )

 cart.    s(11) = (  1.0000000  0.0000000  0.0000000 )
                  (  0.0000000 -1.0000000  0.0000000 )
                  (  0.0000000  0.0000000  1.0000000 )


      isym = 12     inv. 180 deg rotation - cart. axis [1,0,0]   

 cryst.   s(12) = (    -1          0          0      )
                  (     0          1          0      )
                  (     0          0          1      )

 cart.    s(12) = ( -1.0000000  0.0000000  0.0000000 )
                  (  0.0000000  1.0000000  0.0000000 )
                  (  0.0000000  0.0000000  1.0000000 )


      isym = 13     inv. 180 deg rotation - cart. axis [1,1,0]   

 cryst.   s(13) = (     0         -1          0      )
                  (    -1          0          0      )
                  (     0          0          1      )

 cart.    s(13) = (  0.0000000 -1.0000000  0.0000000 )
                  ( -1.0000000  0.0000000  0.0000000 )
                  (  0.0000000  0.0000000  1.0000000 )


      isym = 14     inv. 180 deg rotation - cart. axis [1,-1,0]  

 cryst.   s(14) = (     0          1          0      )
                  (     1          0          0      )
                  (     0          0          1      )

 cart.    s(14) = (  0.0000000  1.0000000  0.0000000 )
                  (  1.0000000  0.0000000  0.0000000 )
                  (  0.0000000  0.0000000  1.0000000 )


      isym = 15     inv.  90 deg rotation - cart. axis [0,0,-1]  

 cryst.   s(15) = (     0          1          0      )
                  (    -1          0          0      )
                  (     0          0         -1      )

 cart.    s(15) = (  0.0000000 -1.0000000  0.0000000 )
                  (  1.0000000  0.0000000  0.0000000 )
                  (  0.0000000  0.0000000 -1.0000000 )


      isym = 16     inv.  90 deg rotation - cart. axis [0,0,1]   

 cryst.   s(16) = (     0         -1          0      )
                  (     1          0          0      )
                  (     0          0         -1      )

 cart.    s(16) = (  0.0000000  1.0000000  0.0000000 )
                  ( -1.0000000  0.0000000  0.0000000 )
                  (  0.0000000  0.0000000 -1.0000000 )


     double point group D_4h(4/mmm)
     there are 14 classes and  4 irreducible representations
     the character table:

       E     -E    2C4   -2C4   C2    2C2' 2C2'' i     -i    2S4   -2S4   s_h 
                               -C2   -2C2' -2C2'                         -s_h 
G_6+   2.00 -2.00  1.41 -1.41  0.00  0.00  0.00  2.00 -2.00  1.41 -1.41  0.00
G_7+   2.00 -2.00 -1.41  1.41  0.00  0.00  0.00  2.00 -2.00 -1.41  1.41  0.00
G_6-   2.00 -2.00  1.41 -1.41  0.00  0.00  0.00 -2.00  2.00 -1.41  1.41  0.00
G_7-   2.00 -2.00 -1.41  1.41  0.00  0.00  0.00 -2.00  2.00  1.41 -1.41  0.00

        2s_v  2s_d
       -2s_v -2s_d
G_6+   0.00  0.00
G_7+   0.00  0.00
G_6-   0.00  0.00
G_7-   0.00  0.00

     the symmetry operations in each class and the name of the first element:

     E             1
          identity                                               
     -E           -1
          identity E                                             
     2C4           7    8
           90 deg rotation - cart. axis [0,0,-1]                 
     -2C4         -7   -8
           90 deg rotation - cart. axis [0,0,-1] E               
      C2  -C2      2   -2
          180 deg rotation - cart. axis [0,0,1]                  
      2C2'-2C2'    3   -3    4   -4
          180 deg rotation - cart. axis [0,1,0]                  
     2C2''-2C2'    5   -5   -6    6
          180 deg rotation - cart. axis [1,1,0]                  
     i             9
          inversion                                              
     -i           -9
          inversion E                                            
     2S4          15   16
          inv.  90 deg rotation - cart. axis [0,0,-1]            
     -2S4        -15  -16
          inv.  90 deg rotation - cart. axis [0,0,-1] E          
      s_h -s_h    10  -10
          inv. 180 deg rotation - cart. axis [0,0,1]             
      2s_v-2s_v   11  -11   12  -12
          inv. 180 deg rotation - cart. axis [0,1,0]             
      2s_d-2s_d   13  -13  -14   14
          inv. 180 deg rotation - cart. axis [1,1,0]             

   Cartesian axes

     site n.     atom                  positions (alat units)
         1        Bi     tau(   1) = (   0.5000000   0.5000000   0.5175674  )
         2        Bi     tau(   2) = (   0.5000000   0.5000000   3.3939153  )
         3        Bi     tau(   3) = (   0.0000000   0.0000000   1.4381739  )
         4        Bi     tau(   4) = (   0.0000000   0.0000000   2.4733087  )
         5        Pd     tau(   5) = (   0.0000000   0.0000000   0.0000000  )
         6        Pd     tau(   6) = (   0.5000000   0.5000000   1.9557413  )

   Crystallographic axes

     site n.     atom                  positions (cryst. coord.)
         1        Bi     tau(   1) = (  0.5000000  0.5000000  0.1323200  )
         2        Bi     tau(   2) = (  0.5000000  0.5000000  0.8676800  )
         3        Bi     tau(   3) = (  0.0000000  0.0000000  0.3676800  )
         4        Bi     tau(   4) = (  0.0000000  0.0000000  0.6323200  )
         5        Pd     tau(   5) = (  0.0000000  0.0000000  0.0000000  )
         6        Pd     tau(   6) = (  0.5000000  0.5000000  0.5000000  )

     number of k points=    41  Methfessel-Paxton smearing, width (Ry)=  0.0100
                       cart. coord. in units 2pi/alat
        k(    1) = (   0.0000000   0.0000000   0.0000000), wk =   0.0243902
        k(    2) = (   0.0500000   0.0500000  -0.0127829), wk =   0.0243902
        k(    3) = (   0.1000000   0.1000000  -0.0255658), wk =   0.0243902
        k(    4) = (   0.1500000   0.1500000  -0.0383486), wk =   0.0243902
        k(    5) = (   0.2000000   0.2000000  -0.0511315), wk =   0.0243902
        k(    6) = (   0.2500000   0.2500000  -0.0639144), wk =   0.0243902
        k(    7) = (   0.3000000   0.3000000  -0.0766973), wk =   0.0243902
        k(    8) = (   0.3500000   0.3500000  -0.0894801), wk =   0.0243902
        k(    9) = (   0.4000000   0.4000000  -0.1022630), wk =   0.0243902
        k(   10) = (   0.4500000   0.4500000  -0.1150459), wk =   0.0243902
        k(   11) = (   0.5000000   0.5000000  -0.1278288), wk =   0.0243902
        k(   12) = (   0.4500000   0.5000000  -0.1150459), wk =   0.0243902
        k(   13) = (   0.4000000   0.5000000  -0.1022630), wk =   0.0243902
        k(   14) = (   0.3500000   0.5000000  -0.0894801), wk =   0.0243902
        k(   15) = (   0.3000000   0.5000000  -0.0766973), wk =   0.0243902
        k(   16) = (   0.2500000   0.5000000  -0.0639144), wk =   0.0243902
        k(   17) = (   0.2000000   0.5000000  -0.0511315), wk =   0.0243902
        k(   18) = (   0.1500000   0.5000000  -0.0383486), wk =   0.0243902
        k(   19) = (   0.1000000   0.5000000  -0.0255658), wk =   0.0243902
        k(   20) = (   0.0500000   0.5000000  -0.0127829), wk =   0.0243902
        k(   21) = (   0.0000000   0.5000000   0.0000000), wk =   0.0243902
        k(   22) = (   0.0250000   0.4750000   0.0063914), wk =   0.0243902
        k(   23) = (   0.0500000   0.4500000   0.0127829), wk =   0.0243902
        k(   24) = (   0.0750000   0.4250000   0.0191743), wk =   0.0243902
        k(   25) = (   0.1000000   0.4000000   0.0255658), wk =   0.0243902
        k(   26) = (   0.1250000   0.3750000   0.0319572), wk =   0.0243902
        k(   27) = (   0.1500000   0.3500000   0.0383486), wk =   0.0243902
        k(   28) = (   0.1750000   0.3250000   0.0447401), wk =   0.0243902
        k(   29) = (   0.2000000   0.3000000   0.0511315), wk =   0.0243902
        k(   30) = (   0.2250000   0.2750000   0.0575229), wk =   0.0243902
        k(   31) = (   0.2500000   0.2500000   0.0639144), wk =   0.0243902
        k(   32) = (   0.2250000   0.2250000   0.0703058), wk =   0.0243902
        k(   33) = (   0.2000000   0.2000000   0.0766973), wk =   0.0243902
        k(   34) = (   0.1750000   0.1750000   0.0830887), wk =   0.0243902
        k(   35) = (   0.1500000   0.1500000   0.0894801), wk =   0.0243902
        k(   36) = (   0.1250000   0.1250000   0.0958716), wk =   0.0243902
        k(   37) = (   0.1000000   0.1000000   0.1022630), wk =   0.0243902
        k(   38) = (   0.0750000   0.0750000   0.1086545), wk =   0.0243902
        k(   39) = (   0.0500000   0.0500000   0.1150459), wk =   0.0243902
        k(   40) = (   0.0250000   0.0250000   0.1214373), wk =   0.0243902
        k(   41) = (   0.0000000   0.0000000   0.1278288), wk =   0.0243902

                       cryst. coord.
        k(    1) = (   0.0000000   0.0000000   0.0000000), wk =   0.0243902
        k(    2) = (   0.0500000   0.0500000  -0.0500000), wk =   0.0243902
        k(    3) = (   0.1000000   0.1000000  -0.1000000), wk =   0.0243902
        k(    4) = (   0.1500000   0.1500000  -0.1500000), wk =   0.0243902
        k(    5) = (   0.2000000   0.2000000  -0.2000000), wk =   0.0243902
        k(    6) = (   0.2500000   0.2500000  -0.2500000), wk =   0.0243902
        k(    7) = (   0.3000000   0.3000000  -0.3000000), wk =   0.0243902
        k(    8) = (   0.3500000   0.3500000  -0.3500000), wk =   0.0243902
        k(    9) = (   0.4000000   0.4000000  -0.4000000), wk =   0.0243902
        k(   10) = (   0.4500000   0.4500000  -0.4500000), wk =   0.0243902
        k(   11) = (   0.5000000   0.5000000  -0.5000000), wk =   0.0243902
        k(   12) = (   0.4500000   0.5000000  -0.4500000), wk =   0.0243902
        k(   13) = (   0.4000000   0.5000000  -0.4000000), wk =   0.0243902
        k(   14) = (   0.3500000   0.5000000  -0.3500000), wk =   0.0243902
        k(   15) = (   0.3000000   0.5000000  -0.3000000), wk =   0.0243902
        k(   16) = (   0.2500000   0.5000000  -0.2500000), wk =   0.0243902
        k(   17) = (   0.2000000   0.5000000  -0.2000000), wk =   0.0243902
        k(   18) = (   0.1500000   0.5000000  -0.1500000), wk =   0.0243902
        k(   19) = (   0.1000000   0.5000000  -0.1000000), wk =   0.0243902
        k(   20) = (   0.0500000   0.5000000  -0.0500000), wk =   0.0243902
        k(   21) = (   0.0000000   0.5000000   0.0000000), wk =   0.0243902
        k(   22) = (   0.0250000   0.4750000   0.0250000), wk =   0.0243902
        k(   23) = (   0.0500000   0.4500000   0.0500000), wk =   0.0243902
        k(   24) = (   0.0750000   0.4250000   0.0750000), wk =   0.0243902
        k(   25) = (   0.1000000   0.4000000   0.1000000), wk =   0.0243902
        k(   26) = (   0.1250000   0.3750000   0.1250000), wk =   0.0243902
        k(   27) = (   0.1500000   0.3500000   0.1500000), wk =   0.0243902
        k(   28) = (   0.1750000   0.3250000   0.1750000), wk =   0.0243902
        k(   29) = (   0.2000000   0.3000000   0.2000000), wk =   0.0243902
        k(   30) = (   0.2250000   0.2750000   0.2250000), wk =   0.0243902
        k(   31) = (   0.2500000   0.2500000   0.2500000), wk =   0.0243902
        k(   32) = (   0.2250000   0.2250000   0.2750000), wk =   0.0243902
        k(   33) = (   0.2000000   0.2000000   0.3000000), wk =   0.0243902
        k(   34) = (   0.1750000   0.1750000   0.3250000), wk =   0.0243902
        k(   35) = (   0.1500000   0.1500000   0.3500000), wk =   0.0243902
        k(   36) = (   0.1250000   0.1250000   0.3750000), wk =   0.0243902
        k(   37) = (   0.1000000   0.1000000   0.4000000), wk =   0.0243902
        k(   38) = (   0.0750000   0.0750000   0.4250000), wk =   0.0243902
        k(   39) = (   0.0500000   0.0500000   0.4500000), wk =   0.0243902
        k(   40) = (   0.0250000   0.0250000   0.4750000), wk =   0.0243902
        k(   41) = (   0.0000000   0.0000000   0.5000000), wk =   0.0243902

     Dense  grid:   217317 G-vectors     FFT dimensions: (  48,  48, 192)

     Smooth grid:    64403 G-vectors     FFT dimensions: (  32,  32, 125)

     Dynamical RAM for                 wfc:       5.89 MB

     Dynamical RAM for     wfc (w. buffer):       5.89 MB

     Dynamical RAM for           str. fact:       1.66 MB

     Dynamical RAM for           local pot:       0.00 MB

     Dynamical RAM for          nlocal pot:       6.26 MB

     Dynamical RAM for                qrad:       9.76 MB

     Dynamical RAM for          rho,v,vnew:      20.07 MB

     Dynamical RAM for           G-vectors:       3.23 MB

     Dynamical RAM for          h,s,v(r/c):       1.69 MB

     Dynamical RAM for          <psi|beta>:       0.60 MB

     Dynamical RAM for                 psi:      11.78 MB

     Dynamical RAM for                hpsi:      11.78 MB

     Dynamical RAM for                spsi:      11.78 MB

     Dynamical RAM for      wfcinit/wfcrot:      10.21 MB

     Dynamical RAM for           addusdens:     508.97 MB

     Estimated static dynamical RAM per process >      56.11 MB

     Estimated max dynamical RAM per process >     565.08 MB

     Estimated total dynamical RAM >       2.21 GB

     The potential is recalculated from file :
     ./Bi2Pd/Bi2Pd.save/charge-density

     Starting wfcs are  108 randomized atomic wfcs

     Band Structure Calculation
     Davidson diagonalization with overlap

     Computing kpt #:     1  of    41
     total cpu time spent up to now is        5.4 secs

     Computing kpt #:     2  of    41
     total cpu time spent up to now is       10.3 secs

     Computing kpt #:     3  of    41
     total cpu time spent up to now is       14.5 secs

     Computing kpt #:     4  of    41
     total cpu time spent up to now is       18.7 secs

     Computing kpt #:     5  of    41
     total cpu time spent up to now is       23.2 secs

     Computing kpt #:     6  of    41
     total cpu time spent up to now is       27.3 secs

     Computing kpt #:     7  of    41
     total cpu time spent up to now is       31.5 secs

     Computing kpt #:     8  of    41
     total cpu time spent up to now is       35.8 secs

     Computing kpt #:     9  of    41
     total cpu time spent up to now is       40.0 secs

     Computing kpt #:    10  of    41
     total cpu time spent up to now is       44.5 secs

     Computing kpt #:    11  of    41
     total cpu time spent up to now is       48.6 secs

     Computing kpt #:    12  of    41
     total cpu time spent up to now is       52.8 secs

     Computing kpt #:    13  of    41
     total cpu time spent up to now is       56.9 secs

     Computing kpt #:    14  of    41
     total cpu time spent up to now is       61.1 secs

     Computing kpt #:    15  of    41
     total cpu time spent up to now is       65.2 secs

     Computing kpt #:    16  of    41
     total cpu time spent up to now is       69.3 secs

     Computing kpt #:    17  of    41
     total cpu time spent up to now is       73.3 secs

     Computing kpt #:    18  of    41
     total cpu time spent up to now is       77.4 secs

     Computing kpt #:    19  of    41
     total cpu time spent up to now is       81.4 secs

     Computing kpt #:    20  of    41
     total cpu time spent up to now is       85.4 secs

     Computing kpt #:    21  of    41
     total cpu time spent up to now is       89.4 secs

     Computing kpt #:    22  of    41
     total cpu time spent up to now is       93.3 secs

     Computing kpt #:    23  of    41
     total cpu time spent up to now is       97.4 secs

     Computing kpt #:    24  of    41
     total cpu time spent up to now is      101.5 secs

     Computing kpt #:    25  of    41
     total cpu time spent up to now is      105.7 secs

     Computing kpt #:    26  of    41
     total cpu time spent up to now is      109.8 secs

     Computing kpt #:    27  of    41
     total cpu time spent up to now is      113.8 secs

     Computing kpt #:    28  of    41
     total cpu time spent up to now is      118.0 secs

     Computing kpt #:    29  of    41
     total cpu time spent up to now is      122.1 secs

     Computing kpt #:    30  of    41
     total cpu time spent up to now is      126.2 secs

     Computing kpt #:    31  of    41
     total cpu time spent up to now is      130.3 secs

     Computing kpt #:    32  of    41
     total cpu time spent up to now is      134.5 secs

     Computing kpt #:    33  of    41
     total cpu time spent up to now is      138.6 secs

     Computing kpt #:    34  of    41
     total cpu time spent up to now is      142.8 secs

     Computing kpt #:    35  of    41
     total cpu time spent up to now is      146.9 secs

     Computing kpt #:    36  of    41
     total cpu time spent up to now is      151.1 secs

     Computing kpt #:    37  of    41
     total cpu time spent up to now is      155.3 secs

     Computing kpt #:    38  of    41
     total cpu time spent up to now is      159.6 secs

     Computing kpt #:    39  of    41
     total cpu time spent up to now is      164.2 secs

     Computing kpt #:    40  of    41
     total cpu time spent up to now is      168.8 secs

     Computing kpt #:    41  of    41
     total cpu time spent up to now is      173.3 secs

     ethr =  1.25E-11,  avg # of iterations = 34.8

     total cpu time spent up to now is      173.3 secs

     End of band structure calculation

          k = 0.0000 0.0000 0.0000 (  8029 PWs)   bands (ev):

   -12.0007 -12.0007 -12.0006 -12.0006 -11.9984 -11.9984 -11.9984 -11.9984
   -11.9946 -11.9946 -11.9844 -11.9844 -11.9775 -11.9775 -11.9677 -11.9677
    -9.0566  -9.0566  -9.0560  -9.0560  -9.0549  -9.0549  -9.0543  -9.0543
    -9.0307  -9.0307  -9.0212  -9.0212  -8.9885  -8.9885  -8.9808  -8.9808
    -8.9366  -8.9366  -8.9261  -8.9261  -8.9195  -8.9195  -8.9074  -8.9074
    -0.8898  -0.8898  -0.3213  -0.3213  -0.0750  -0.0750   0.8328   0.8328
     6.2107   6.2107   7.8175   7.8175   8.4522   8.4522   8.4525   8.4525
     8.9052   8.9052   8.9791   8.9791   9.3238   9.3238   9.3435   9.3435
     9.5131   9.5131   9.7328   9.7328   9.8125   9.8125   9.8144   9.8144
    10.6259  10.6259  12.4257  12.4257  13.2455  13.2455  14.5946  14.5946
    14.7628  14.7628  15.0087  15.0087  15.4680  15.4680  15.5038  15.5038
    16.5217  16.5217  16.8058  16.8058  17.9056  17.9056  18.3896  18.3896

          k = 0.0500 0.0500-0.0128 (  8019 PWs)   bands (ev):

   -11.9993 -11.9993 -11.9989 -11.9989 -11.9970 -11.9970 -11.9967 -11.9967
   -11.9937 -11.9937 -11.9842 -11.9842 -11.9772 -11.9772 -11.9677 -11.9677
    -9.0536  -9.0536  -9.0525  -9.0525  -9.0510  -9.0510  -9.0508  -9.0508
    -9.0289  -9.0289  -9.0201  -9.0201  -8.9872  -8.9872  -8.9796  -8.9796
    -8.9391  -8.9391  -8.9281  -8.9281  -8.9222  -8.9222  -8.9098  -8.9098
    -0.8275  -0.8275  -0.2777  -0.2777  -0.0066  -0.0066   0.8706   0.8706
     6.2901   6.2901   7.8514   7.8514   8.4659   8.4659   8.4665   8.4665
     8.8954   8.8954   8.8981   8.8981   9.2034   9.2034   9.3116   9.3116
     9.7284   9.7284   9.7638   9.7638   9.7682   9.7682   9.7780   9.7780
    10.6022  10.6022  12.3280  12.3280  13.1100  13.1100  14.0820  14.0820
    14.4492  14.4492  14.9109  14.9109  15.1173  15.1173  15.2084  15.2084
    16.1137  16.1137  17.2529  17.2529  17.4524  17.4524  18.7643  18.7643

          k = 0.1000 0.1000-0.0256 (  8014 PWs)   bands (ev):

   -11.9953 -11.9953 -11.9950 -11.9950 -11.9931 -11.9931 -11.9922 -11.9922
   -11.9913 -11.9913 -11.9836 -11.9836 -11.9759 -11.9759 -11.9677 -11.9677
    -9.0441  -9.0441  -9.0427  -9.0427  -9.0401  -9.0401  -9.0401  -9.0401
    -9.0247  -9.0247  -9.0167  -9.0167  -8.9832  -8.9832  -8.9764  -8.9764
    -8.9460  -8.9460  -8.9349  -8.9349  -8.9297  -8.9297  -8.9169  -8.9169
    -0.6427  -0.6427  -0.1420  -0.1420   0.1894   0.1894   0.9843   0.9843
     6.5204   6.5204   7.9463   7.9463   8.5034   8.5034   8.5078   8.5078
     8.7685   8.7685   8.8613   8.8613   9.0667   9.0667   9.2811   9.2811
     9.6182   9.6182   9.6258   9.6258   9.7307   9.7307  10.0267  10.0267
    10.6547  10.6547  12.0539  12.0539  12.8115  12.8115  13.2372  13.2372
    13.8032  13.8032  14.1684  14.1684  14.5332  14.5332  14.7312  14.7312
    15.5774  15.5774  16.2454  16.2454  18.4876  18.4876  18.9359  18.9359

          k = 0.1500 0.1500-0.0383 (  8025 PWs)   bands (ev):

   -11.9914 -11.9914 -11.9893 -11.9893 -11.9873 -11.9873 -11.9860 -11.9860
   -11.9856 -11.9856 -11.9825 -11.9825 -11.9741 -11.9741 -11.9677 -11.9677
    -9.0288  -9.0288  -9.0277  -9.0277  -9.0237  -9.0237  -9.0234  -9.0234
    -9.0177  -9.0177  -9.0111  -9.0111  -8.9772  -8.9772  -8.9714  -8.9714
    -8.9563  -8.9563  -8.9465  -8.9465  -8.9401  -8.9401  -8.9283  -8.9283
    -0.3417  -0.3417   0.0912   0.0912   0.4948   0.4948   1.1738   1.1738
     6.8739   6.8739   8.0801   8.0801   8.5537   8.5537   8.5672   8.5672
     8.7198   8.7198   8.7643   8.7643   8.9023   8.9023   9.1994   9.1994
     9.3840   9.3840   9.4626   9.4626   9.7281   9.7281   9.9601   9.9601
    10.9767  10.9767  11.6928  11.6928  12.4355  12.4355  12.4826  12.4826
    13.0915  13.0915  13.3645  13.3645  13.8100  13.8100  14.1051  14.1051
    15.3280  15.3280  15.3484  15.3484  18.2066  18.2066  19.2748  19.2748

          k = 0.2000 0.2000-0.0511 (  8036 PWs)   bands (ev):

   -11.9885 -11.9885 -11.9833 -11.9833 -11.9811 -11.9811 -11.9800 -11.9800
   -11.9778 -11.9778 -11.9777 -11.9777 -11.9716 -11.9716 -11.9677 -11.9677
    -9.0135  -9.0135  -9.0117  -9.0117  -9.0063  -9.0063  -9.0052  -9.0052
    -9.0011  -9.0011  -8.9988  -8.9988  -8.9718  -8.9718  -8.9676  -8.9676
    -8.9659  -8.9659  -8.9589  -8.9589  -8.9519  -8.9519  -8.9427  -8.9427
     0.0627   0.0627   0.4179   0.4179   0.8906   0.8906   1.4373   1.4373
     7.2814   7.2814   8.1971   8.1971   8.5344   8.5344   8.5673   8.5673
     8.6680   8.6680   8.6938   8.6938   8.7752   8.7752   8.9739   8.9739
     9.2084   9.2084   9.4299   9.4299   9.7080   9.7080   9.7681   9.7681
    11.2235  11.2235  11.3715  11.3715  11.7816  11.7816  12.1768  12.1768
    12.3225  12.3225  12.6209  12.6209  13.4928  13.4928  13.4939  13.4939
    14.5744  14.5744  15.2274  15.2274  17.5775  17.5775  18.8320  18.8320

          k = 0.2500 0.2500-0.0639 (  8047 PWs)   bands (ev):

   -11.9858 -11.9858 -11.9820 -11.9820 -11.9742 -11.9742 -11.9725 -11.9725
   -11.9715 -11.9715 -11.9695 -11.9695 -11.9676 -11.9676 -11.9673 -11.9673
    -9.0058  -9.0058  -9.0042  -9.0042  -8.9926  -8.9926  -8.9885  -8.9885
    -8.9777  -8.9777  -8.9773  -8.9773  -8.9739  -8.9739  -8.9728  -8.9728
    -8.9665  -8.9665  -8.9647  -8.9647  -8.9530  -8.9530  -8.9523  -8.9523
     0.5490   0.5490   0.8220   0.8220   1.3558   1.3558   1.7684   1.7684
     7.5737   7.5737   8.1399   8.1399   8.2959   8.2959   8.3549   8.3549
     8.6411   8.6411   8.7244   8.7244   8.8515   8.8515   8.8807   8.8807
     9.2606   9.2606   9.4398   9.4398   9.5663   9.5663   9.6067   9.6067
    11.0342  11.0342  11.1648  11.1648  11.3407  11.3407  11.4594  11.4594
    12.0443  12.0443  12.3139  12.3139  12.9989  12.9989  13.4909  13.4909
    14.0901  14.0901  15.0585  15.0585  17.1054  17.1054  17.9830  17.9830

          k = 0.3000 0.3000-0.0767 (  8059 PWs)   bands (ev):

   -11.9837 -11.9837 -11.9814 -11.9814 -11.9702 -11.9702 -11.9682 -11.9682
   -11.9650 -11.9650 -11.9641 -11.9641 -11.9620 -11.9620 -11.9613 -11.9613
    -9.0070  -9.0070  -9.0052  -9.0052  -8.9946  -8.9946  -8.9936  -8.9936
    -8.9815  -8.9815  -8.9797  -8.9797  -8.9581  -8.9581  -8.9572  -8.9572
    -8.9511  -8.9511  -8.9503  -8.9503  -8.9418  -8.9418  -8.9397  -8.9397
     1.0816   1.0816   1.2715   1.2715   1.8679   1.8679   2.1537   2.1537
     7.5904   7.5904   7.9202   7.9202   8.0190   8.0190   8.0944   8.0944
     8.6361   8.6361   8.7104   8.7104   8.9786   8.9786   8.9847   8.9847
     9.2804   9.2804   9.4052   9.4052   9.5051   9.5051   9.5131   9.5131
    10.6366  10.6366  10.9436  10.9436  10.9617  10.9617  11.1395  11.1395
    11.8998  11.8998  12.5704  12.5704  12.6478  12.6478  13.2622  13.2622
    14.1223  14.1223  14.7976  14.7976  16.6575  16.6575  16.7685  16.7685

          k = 0.3500 0.3500-0.0895 (  8069 PWs)   bands (ev):

   -11.9820 -11.9820 -11.9810 -11.9810 -11.9684 -11.9684 -11.9675 -11.9675
   -11.9585 -11.9585 -11.9582 -11.9582 -11.9559 -11.9559 -11.9557 -11.9557
    -9.0178  -9.0178  -9.0165  -9.0165  -9.0013  -9.0013  -8.9995  -8.9995
    -8.9857  -8.9857  -8.9857  -8.9857  -8.9461  -8.9461  -8.9459  -8.9459
    -8.9272  -8.9272  -8.9269  -8.9269  -8.9211  -8.9211  -8.9203  -8.9203
     1.6046   1.6046   1.7133   1.7133   2.4021   2.4021   2.5711   2.5711
     7.4996   7.4996   7.7002   7.7002   7.7854   7.7854   7.8910   7.8910
     8.5198   8.5198   8.5236   8.5236   8.7754   8.7754   8.8403   8.8403
     9.2476   9.2476   9.4041   9.4041   9.6645   9.6645   9.6647   9.6647
    10.4820  10.4820  10.6961  10.6961  10.8122  10.8122  11.0816  11.0816
    12.2263  12.2263  12.5331  12.5331  12.7024  12.7024  13.1636  13.1636
    14.2392  14.2392  14.4919  14.4919  15.6185  15.6185  15.8141  15.8141

          k = 0.4000 0.4000-0.1023 (  8062 PWs)   bands (ev):

   -11.9810 -11.9810 -11.9807 -11.9807 -11.9672 -11.9672 -11.9669 -11.9669
   -11.9534 -11.9534 -11.9532 -11.9532 -11.9516 -11.9516 -11.9515 -11.9515
    -9.0276  -9.0276  -9.0272  -9.0272  -9.0118  -9.0118  -9.0112  -9.0112
    -8.9830  -8.9830  -8.9830  -8.9830  -8.9390  -8.9390  -8.9390  -8.9390
    -8.9065  -8.9065  -8.9065  -8.9065  -8.9021  -8.9021  -8.9018  -8.9018
     2.0399   2.0399   2.0810   2.0810   2.9178   2.9178   2.9879   2.9879
     7.3686   7.3686   7.4519   7.4519   7.7302   7.7302   7.8350   7.8350
     8.1433   8.1433   8.1585   8.1585   8.6234   8.6234   8.7164   8.7164
     9.2171   9.2171   9.3330   9.3330   9.7521   9.7521   9.7613   9.7613
    10.4431  10.4431  10.5032  10.5032  11.0944  11.0944  11.3062  11.3062
    12.2627  12.2627  12.5265  12.5265  13.1092  13.1092  13.4814  13.4814
    14.1446  14.1446  14.1798  14.1798  14.7777  14.7777  14.9571  14.9571

          k = 0.4500 0.4500-0.1150 (  8064 PWs)   bands (ev):

   -11.9806 -11.9806 -11.9805 -11.9805 -11.9666 -11.9666 -11.9666 -11.9666
   -11.9502 -11.9502 -11.9502 -11.9502 -11.9490 -11.9490 -11.9490 -11.9490
    -9.0343  -9.0343  -9.0342  -9.0342  -9.0193  -9.0193  -9.0192  -9.0192
    -8.9808  -8.9808  -8.9808  -8.9808  -8.9348  -8.9348  -8.9348  -8.9348
    -8.8929  -8.8929  -8.8928  -8.8928  -8.8892  -8.8892  -8.8892  -8.8892
     2.3152   2.3152   2.3211   2.3211   3.3253   3.3253   3.3368   3.3368
     7.1864   7.1864   7.2028   7.2028   7.7090   7.7090   7.7160   7.7160
     8.0258   8.0258   8.0524   8.0524   8.5651   8.5651   8.5947   8.5947
     9.2329   9.2329   9.2720   9.2720   9.6352   9.6352   9.6519   9.6519
    10.4060  10.4060  10.4128  10.4128  11.5563  11.5563  11.6161  11.6161
    12.3691  12.3691  12.4386  12.4386  13.5746  13.5746  13.6341  13.6341
    13.8222  13.8222  13.8290  13.8290  14.5988  14.5988  14.6987  14.6987

          k = 0.5000 0.5000-0.1278 (  8000 PWs)   bands (ev):

   -11.9804 -11.9804 -11.9804 -11.9804 -11.9660 -11.9660 -11.9660 -11.9660
   -11.9485 -11.9485 -11.9485 -11.9485 -11.9481 -11.9481 -11.9481 -11.9481
    -9.0361  -9.0361  -9.0361  -9.0361  -9.0219  -9.0219  -9.0219  -9.0219
    -8.9799  -8.9799  -8.9799  -8.9799  -8.9332  -8.9332  -8.9332  -8.9332
    -8.8874  -8.8874  -8.8874  -8.8874  -8.8848  -8.8848  -8.8848  -8.8848
     2.4051   2.4051   2.4051   2.4051   3.4852   3.4852   3.4852   3.4852
     7.0875   7.0875   7.0875   7.0875   7.6263   7.6263   7.6263   7.6263
     8.1220   8.1220   8.1220   8.1220   8.5398   8.5398   8.5399   8.5399
     9.2765   9.2765   9.2765   9.2765   9.5144   9.5144   9.5144   9.5144
    10.3953  10.3953  10.3955  10.3955  11.7354  11.7354  11.7355  11.7355
    12.5151  12.5151  12.5151  12.5151  13.5978  13.5978  13.5978  13.5978
    13.6268  13.6268  13.6269  13.6269  14.6860  14.6860  14.6860  14.6860

          k = 0.4500 0.5000-0.1150 (  8042 PWs)   bands (ev):

   -11.9804 -11.9804 -11.9804 -11.9804 -11.9664 -11.9664 -11.9664 -11.9664
   -11.9495 -11.9495 -11.9495 -11.9495 -11.9485 -11.9485 -11.9485 -11.9485
    -9.0354  -9.0354  -9.0354  -9.0354  -9.0206  -9.0206  -9.0206  -9.0206
    -8.9803  -8.9803  -8.9803  -8.9803  -8.9341  -8.9341  -8.9341  -8.9341
    -8.8902  -8.8902  -8.8902  -8.8902  -8.8869  -8.8869  -8.8869  -8.8869
     2.3625   2.3625   2.3625   2.3625   3.4064   3.4064   3.4064   3.4064
     7.1407   7.1407   7.1408   7.1408   7.6747   7.6747   7.6747   7.6747
     8.0736   8.0736   8.0736   8.0736   8.5375   8.5375   8.5375   8.5375
     9.2907   9.2907   9.2907   9.2907   9.5808   9.5808   9.5809   9.5809
    10.4016  10.4016  10.4017  10.4017  11.6605  11.6605  11.6606  11.6606
    12.4434  12.4434  12.4434  12.4434  13.6047  13.6047  13.6047  13.6047
    13.7448  13.7448  13.7448  13.7448  14.6750  14.6750  14.6750  14.6750

          k = 0.4000 0.5000-0.1023 (  8070 PWs)   bands (ev):

   -11.9808 -11.9808 -11.9808 -11.9808 -11.9669 -11.9669 -11.9669 -11.9669
   -11.9511 -11.9511 -11.9511 -11.9511 -11.9497 -11.9497 -11.9497 -11.9497
    -9.0322  -9.0322  -9.0322  -9.0322  -9.0169  -9.0169  -9.0169  -9.0169
    -8.9816  -8.9816  -8.9816  -8.9816  -8.9367  -8.9367  -8.9367  -8.9367
    -8.8968  -8.8968  -8.8968  -8.8968  -8.8932  -8.8932  -8.8932  -8.8932
     2.2445   2.2445   2.2445   2.2445   3.2002   3.2002   3.2002   3.2002
     7.2415   7.2415   7.2415   7.2415   7.7836   7.7836   7.7836   7.7836
     8.0212   8.0212   8.0212   8.0212   8.4399   8.4399   8.4400   8.4400
     9.4712   9.4712   9.4713   9.4713   9.6882   9.6882   9.6882   9.6882
    10.4258  10.4258  10.4259  10.4259  11.4348  11.4348  11.4349  11.4349
    12.3597  12.3597  12.3597  12.3597  13.5817  13.5817  13.5817  13.5817
    13.9303  13.9303  13.9303  13.9303  14.6953  14.6953  14.6953  14.6953

          k = 0.3500 0.5000-0.0895 (  8066 PWs)   bands (ev):

   -11.9813 -11.9813 -11.9813 -11.9813 -11.9680 -11.9680 -11.9680 -11.9680
   -11.9529 -11.9529 -11.9529 -11.9529 -11.9515 -11.9515 -11.9515 -11.9515
    -9.0271  -9.0271  -9.0271  -9.0271  -9.0117  -9.0117  -9.0117  -9.0117
    -8.9830  -8.9830  -8.9830  -8.9830  -8.9422  -8.9422  -8.9422  -8.9422
    -8.9056  -8.9056  -8.9056  -8.9056  -8.9015  -8.9015  -8.9014  -8.9014
     2.0753   2.0753   2.0753   2.0753   2.9272   2.9272   2.9272   2.9272
     7.3191   7.3191   7.3191   7.3191   7.6586   7.6586   7.6586   7.6586
     8.2157   8.2157   8.2158   8.2158   8.3603   8.3603   8.3604   8.3604
     9.5299   9.5299   9.5300   9.5300  10.0017  10.0017  10.0017  10.0017
    10.4783  10.4783  10.4784  10.4784  11.1361  11.1361  11.1362  11.1362
    12.3493  12.3493  12.3493  12.3493  13.3971  13.3971  13.3972  13.3972
    14.1441  14.1441  14.1441  14.1441  14.9028  14.9028  14.9028  14.9028

          k = 0.3000 0.5000-0.0767 (  8068 PWs)   bands (ev):

   -11.9825 -11.9825 -11.9825 -11.9825 -11.9702 -11.9702 -11.9702 -11.9702
   -11.9545 -11.9545 -11.9545 -11.9545 -11.9533 -11.9533 -11.9533 -11.9533
    -9.0214  -9.0214  -9.0214  -9.0214  -9.0078  -9.0078  -9.0078  -9.0078
    -8.9834  -8.9834  -8.9834  -8.9834  -8.9522  -8.9522  -8.9522  -8.9522
    -8.9152  -8.9152  -8.9152  -8.9152  -8.9082  -8.9082  -8.9082  -8.9082
     1.8825   1.8825   1.8825   1.8825   2.6389   2.6389   2.6389   2.6389
     7.3093   7.3093   7.3093   7.3093   7.4507   7.4507   7.4508   7.4508
     8.3206   8.3206   8.3207   8.3207   8.5517   8.5517   8.5517   8.5517
     9.4451   9.4451   9.4452   9.4452  10.2899  10.2899  10.2900  10.2900
    10.5550  10.5550  10.5551  10.5551  10.9498  10.9498  10.9498  10.9498
    12.3783  12.3783  12.3783  12.3783  13.3073  13.3073  13.3073  13.3073
    14.3266  14.3266  14.3266  14.3266  15.3021  15.3021  15.3021  15.3021

          k = 0.2500 0.5000-0.0639 (  8062 PWs)   bands (ev):

   -11.9847 -11.9847 -11.9847 -11.9847 -11.9738 -11.9738 -11.9738 -11.9738
   -11.9555 -11.9555 -11.9555 -11.9555 -11.9546 -11.9546 -11.9546 -11.9546
    -9.0166  -9.0166  -9.0166  -9.0166  -9.0079  -9.0079  -9.0079  -9.0079
    -8.9807  -8.9807  -8.9807  -8.9807  -8.9654  -8.9654  -8.9654  -8.9654
    -8.9243  -8.9243  -8.9243  -8.9243  -8.9113  -8.9113  -8.9113  -8.9113
     1.6901   1.6901   1.6901   1.6901   2.3680   2.3680   2.3680   2.3680
     7.0406   7.0406   7.0407   7.0407   7.4764   7.4764   7.4764   7.4764
     8.3807   8.3807   8.3807   8.3807   8.7880   8.7880   8.7881   8.7881
     9.3215   9.3215   9.3215   9.3215  10.2649  10.2649  10.2650  10.2650
    10.5284  10.5284  10.5285  10.5285  11.0079  11.0079  11.0079  11.0079
    12.5324  12.5324  12.5324  12.5324  13.5259  13.5259  13.5259  13.5259
    14.5379  14.5379  14.5380  14.5380  15.7112  15.7112  15.7112  15.7112

          k = 0.2000 0.5000-0.0511 (  8082 PWs)   bands (ev):

   -11.9876 -11.9876 -11.9876 -11.9876 -11.9784 -11.9784 -11.9784 -11.9784
   -11.9563 -11.9563 -11.9563 -11.9563 -11.9552 -11.9552 -11.9552 -11.9552
    -9.0182  -9.0182  -9.0182  -9.0182  -9.0081  -9.0081  -9.0081  -9.0081
    -8.9822  -8.9822  -8.9822  -8.9822  -8.9727  -8.9727  -8.9727  -8.9727
    -8.9309  -8.9309  -8.9309  -8.9309  -8.9119  -8.9119  -8.9119  -8.9119
     1.5157   1.5157   1.5157   1.5157   2.1328   2.1328   2.1328   2.1328
     6.7638   6.7638   6.7638   6.7638   7.5335   7.5335   7.5335   7.5335
     8.4672   8.4672   8.4673   8.4673   8.9336   8.9336   8.9337   8.9337
     9.2016   9.2016   9.2017   9.2017  10.0817  10.0817  10.0817  10.0817
    10.5019  10.5019  10.5020  10.5020  10.9134  10.9134  10.9134  10.9134
    12.9208  12.9208  12.9208  12.9208  14.0209  14.0209  14.0209  14.0209
    14.8636  14.8636  14.8636  14.8636  15.9508  15.9508  15.9509  15.9509

          k = 0.1500 0.5000-0.0383 (  8080 PWs)   bands (ev):

   -11.9908 -11.9908 -11.9908 -11.9908 -11.9831 -11.9831 -11.9831 -11.9831
   -11.9565 -11.9565 -11.9565 -11.9565 -11.9552 -11.9552 -11.9552 -11.9552
    -9.0254  -9.0254  -9.0254  -9.0254  -9.0086  -9.0086  -9.0086  -9.0086
    -8.9916  -8.9916  -8.9916  -8.9916  -8.9687  -8.9687  -8.9687  -8.9687
    -8.9337  -8.9337  -8.9337  -8.9337  -8.9109  -8.9109  -8.9109  -8.9109
     1.3711   1.3711   1.3711   1.3711   1.9437   1.9437   1.9437   1.9437
     6.5321   6.5321   6.5321   6.5321   7.5855   7.5855   7.5855   7.5855
     8.5635   8.5635   8.5636   8.5636   8.9852   8.9852   8.9852   8.9852
     9.1379   9.1379   9.1380   9.1380   9.9048   9.9048   9.9048   9.9048
    10.3762  10.3762  10.3762  10.3762  10.7785  10.7785  10.7786  10.7786
    13.3179  13.3179  13.3180  13.3180  14.6746  14.6746  14.6746  14.6746
    15.3607  15.3607  15.3607  15.3607  16.0447  16.0447  16.0447  16.0447

          k = 0.1000 0.5000-0.0256 (  8062 PWs)   bands (ev):

   -11.9935 -11.9935 -11.9935 -11.9935 -11.9872 -11.9872 -11.9872 -11.9872
   -11.9565 -11.9565 -11.9565 -11.9565 -11.9550 -11.9550 -11.9550 -11.9550
    -9.0326  -9.0326  -9.0326  -9.0326  -9.0148  -9.0148  -9.0148  -9.0148
    -8.9938  -8.9938  -8.9938  -8.9938  -8.9660  -8.9660  -8.9660  -8.9660
    -8.9334  -8.9334  -8.9334  -8.9334  -8.9093  -8.9093  -8.9093  -8.9093
     1.2637   1.2637   1.2637   1.2637   1.8059   1.8059   1.8060   1.8060
     6.3596   6.3596   6.3596   6.3596   7.6238   7.6238   7.6238   7.6238
     8.6472   8.6472   8.6473   8.6473   8.9682   8.9682   8.9683   8.9683
     9.1678   9.1678   9.1678   9.1678   9.7603   9.7603   9.7604   9.7604
    10.1430  10.1430  10.1430  10.1430  10.7301  10.7301  10.7302  10.7302
    13.5803  13.5803  13.5803  13.5803  15.2259  15.2259  15.2259  15.2259
    15.9788  15.9788  15.9788  15.9788  16.2676  16.2676  16.2676  16.2676

          k = 0.0500 0.5000-0.0128 (  8058 PWs)   bands (ev):

   -11.9954 -11.9954 -11.9954 -11.9954 -11.9901 -11.9901 -11.9901 -11.9901
   -11.9563 -11.9563 -11.9563 -11.9563 -11.9548 -11.9548 -11.9548 -11.9548
    -9.0376  -9.0376  -9.0376  -9.0376  -9.0211  -9.0211  -9.0211  -9.0211
    -8.9934  -8.9934  -8.9934  -8.9934  -8.9648  -8.9648  -8.9648  -8.9648
    -8.9321  -8.9321  -8.9321  -8.9321  -8.9079  -8.9079  -8.9079  -8.9079
     1.1978   1.1978   1.1978   1.1978   1.7225   1.7225   1.7225   1.7225
     6.2536   6.2536   6.2536   6.2536   7.6456   7.6456   7.6456   7.6456
     8.6899   8.6899   8.6900   8.6900   8.9797   8.9797   8.9798   8.9798
     9.2242   9.2242   9.2243   9.2243   9.6592   9.6592   9.6593   9.6593
     9.9259   9.9259   9.9259   9.9259  10.7172  10.7172  10.7173  10.7173
    13.7198  13.7198  13.7198  13.7198  15.4012  15.4012  15.4012  15.4012
    16.5268  16.5268  16.5268  16.5268  16.8118  16.8118  16.8118  16.8118

          k = 0.0000 0.5000 0.0000 (  8056 PWs)   bands (ev):

   -11.9960 -11.9960 -11.9960 -11.9960 -11.9910 -11.9910 -11.9910 -11.9910
   -11.9563 -11.9563 -11.9563 -11.9563 -11.9548 -11.9548 -11.9548 -11.9548
    -9.0394  -9.0394  -9.0394  -9.0394  -9.0234  -9.0234  -9.0234  -9.0234
    -8.9930  -8.9930  -8.9930  -8.9930  -8.9646  -8.9646  -8.9646  -8.9646
    -8.9314  -8.9314  -8.9314  -8.9314  -8.9074  -8.9074  -8.9074  -8.9074
     1.1756   1.1756   1.1756   1.1756   1.6945   1.6945   1.6945   1.6945
     6.2179   6.2179   6.2179   6.2179   7.6524   7.6524   7.6524   7.6524
     8.6977   8.6977   8.6977   8.6977   9.0010   9.0010   9.0010   9.0010
     9.2521   9.2521   9.2522   9.2522   9.6246   9.6246   9.6247   9.6247
     9.8299   9.8299   9.8299   9.8299  10.7143  10.7143  10.7144  10.7144
    13.7636  13.7636  13.7636  13.7636  15.4194  15.4194  15.4195  15.4195
    16.7541  16.7541  16.7541  16.7541  17.1384  17.1384  17.1384  17.1384

          k = 0.0250 0.4750 0.0064 (  8058 PWs)   bands (ev):

   -11.9962 -11.9962 -11.9956 -11.9956 -11.9909 -11.9909 -11.9906 -11.9906
   -11.9567 -11.9567 -11.9564 -11.9564 -11.9549 -11.9549 -11.9549 -11.9549
    -9.0390  -9.0390  -9.0388  -9.0388  -9.0227  -9.0227  -9.0227  -9.0227
    -8.9935  -8.9935  -8.9924  -8.9924  -8.9654  -8.9654  -8.9639  -8.9639
    -8.9322  -8.9322  -8.9319  -8.9319  -8.9081  -8.9081  -8.9080  -8.9080
     1.1172   1.1172   1.2089   1.2089   1.6351   1.6351   1.7446   1.7446
     6.2131   6.2131   6.3036   6.3036   7.6593   7.6593   7.6676   7.6676
     8.6564   8.6564   8.7247   8.7247   8.9785   8.9785   9.0069   9.0069
     9.2199   9.2199   9.2892   9.2892   9.6215   9.6215   9.6276   9.6276
     9.7825   9.7825   9.9343   9.9343  10.6558  10.6558  10.8017  10.8017
    13.5125  13.5125  13.9820  13.9820  15.2644  15.2644  15.6017  15.6017
    16.6547  16.6547  16.7368  16.7368  16.9442  16.9442  17.1150  17.1150

          k = 0.0500 0.4500 0.0128 (  8060 PWs)   bands (ev):

   -11.9959 -11.9959 -11.9948 -11.9948 -11.9903 -11.9903 -11.9895 -11.9895
   -11.9575 -11.9575 -11.9572 -11.9572 -11.9555 -11.9555 -11.9552 -11.9552
    -9.0375  -9.0375  -9.0372  -9.0372  -9.0207  -9.0207  -9.0206  -9.0206
    -8.9939  -8.9939  -8.9915  -8.9915  -8.9662  -8.9662  -8.9634  -8.9634
    -8.9343  -8.9343  -8.9338  -8.9338  -8.9104  -8.9104  -8.9100  -8.9100
     1.0396   1.0396   1.2145   1.2145   1.5705   1.5705   1.7830   1.7830
     6.2917   6.2917   6.4617   6.4617   7.6907   7.6907   7.6975   7.6975
     8.5936   8.5936   8.7423   8.7423   8.9611   8.9611   8.9881   8.9881
     9.2004   9.2004   9.3292   9.3292   9.6199   9.6199   9.6435   9.6435
     9.7947   9.7947  10.0586  10.0586  10.6173  10.6173  10.9275  10.9275
    13.2509  13.2509  14.1458  14.1458  15.1372  15.1372  15.7609  15.7609
    16.4732  16.4732  16.5583  16.5583  16.6413  16.6413  16.9054  16.9054

          k = 0.0750 0.4250 0.0192 (  8055 PWs)   bands (ev):

   -11.9952 -11.9952 -11.9935 -11.9935 -11.9891 -11.9891 -11.9880 -11.9880
   -11.9588 -11.9588 -11.9583 -11.9583 -11.9562 -11.9562 -11.9558 -11.9558
    -9.0350  -9.0350  -9.0344  -9.0344  -9.0175  -9.0175  -9.0174  -9.0174
    -8.9942  -8.9942  -8.9906  -8.9906  -8.9671  -8.9671  -8.9630  -8.9630
    -8.9377  -8.9377  -8.9368  -8.9368  -8.9138  -8.9138  -8.9132  -8.9132
     0.9503   0.9503   1.1927   1.1927   1.5063   1.5063   1.8091   1.8091
     6.4505   6.4505   6.6795   6.6795   7.7301   7.7301   7.7453   7.7453
     8.5155   8.5155   8.7456   8.7456   8.9619   8.9619   8.9631   8.9631
     9.2155   9.2155   9.3554   9.3554   9.6254   9.6254   9.6749   9.6749
     9.8413   9.8413  10.1864  10.1864  10.5971  10.5971  11.0858  11.0858
    13.0015  13.0015  14.2320  14.2320  15.0078  15.0078  15.6999  15.6999
    16.1692  16.1692  16.3153  16.3153  16.4057  16.4057  16.6831  16.6831

          k = 0.1000 0.4000 0.0256 (  8049 PWs)   bands (ev):

   -11.9942 -11.9942 -11.9920 -11.9920 -11.9874 -11.9874 -11.9861 -11.9861
   -11.9603 -11.9603 -11.9598 -11.9598 -11.9574 -11.9574 -11.9568 -11.9568
    -9.0316  -9.0316  -9.0308  -9.0308  -9.0130  -9.0130  -9.0130  -9.0130
    -8.9942  -8.9942  -8.9897  -8.9897  -8.9678  -8.9678  -8.9629  -8.9629
    -8.9420  -8.9420  -8.9410  -8.9410  -8.9184  -8.9184  -8.9176  -8.9176
     0.8574   0.8574   1.1473   1.1473   1.4486   1.4486   1.8232   1.8232
     6.6808   6.6808   6.9396   6.9396   7.7531   7.7531   7.8193   7.8193
     8.4436   8.4436   8.7236   8.7236   8.9562   8.9562   8.9820   8.9820
     9.2700   9.2700   9.3621   9.3621   9.6307   9.6307   9.6983   9.6983
     9.9157   9.9157  10.3332  10.3332  10.6001  10.6001  11.2459  11.2459
    12.7880  12.7880  14.2093  14.2093  14.7988  14.7988  15.3271  15.3271
    15.8625  15.8625  16.0410  16.0410  16.1112  16.1112  16.7837  16.7837

          k = 0.1250 0.3750 0.0320 (  8055 PWs)   bands (ev):

   -11.9928 -11.9928 -11.9903 -11.9903 -11.9854 -11.9854 -11.9838 -11.9838
   -11.9622 -11.9622 -11.9618 -11.9618 -11.9589 -11.9589 -11.9581 -11.9581
    -9.0273  -9.0273  -9.0265  -9.0265  -9.0077  -9.0077  -9.0076  -9.0076
    -8.9940  -8.9940  -8.9887  -8.9887  -8.9685  -8.9685  -8.9631  -8.9631
    -8.9473  -8.9473  -8.9462  -8.9462  -8.9241  -8.9241  -8.9231  -8.9231
     0.7682   0.7682   1.0857   1.0857   1.4013   1.4013   1.8267   1.8267
     6.9692   6.9692   7.2158   7.2158   7.7681   7.7681   7.9070   7.9070
     8.3961   8.3961   8.6789   8.6789   8.9692   8.9692   9.0147   9.0147
     9.3479   9.3479   9.3603   9.3603   9.6246   9.6246   9.6873   9.6873
    10.0336  10.0336  10.5136  10.5136  10.6347  10.6347  11.3637  11.3637
    12.6331  12.6331  14.0367  14.0367  14.4537  14.4537  14.8318  14.8318
    15.6689  15.6689  15.7280  15.7280  15.8633  15.8633  17.0450  17.0450

          k = 0.1500 0.3500 0.0383 (  8052 PWs)   bands (ev):

   -11.9912 -11.9912 -11.9883 -11.9883 -11.9830 -11.9830 -11.9814 -11.9814
   -11.9642 -11.9642 -11.9639 -11.9639 -11.9606 -11.9606 -11.9598 -11.9598
    -9.0224  -9.0224  -9.0212  -9.0212  -9.0019  -9.0019  -9.0015  -9.0015
    -8.9933  -8.9933  -8.9876  -8.9876  -8.9692  -8.9692  -8.9637  -8.9637
    -8.9532  -8.9532  -8.9516  -8.9516  -8.9306  -8.9306  -8.9294  -8.9294
     0.6890   0.6890   1.0173   1.0173   1.3661   1.3661   1.8220   1.8220
     7.2981   7.2981   7.4471   7.4471   7.8223   7.8223   8.0014   8.0014
     8.3774   8.3774   8.6262   8.6262   8.9850   8.9850   9.0475   9.0475
     9.3634   9.3634   9.4243   9.4243   9.6004   9.6004   9.6391   9.6391
    10.2179  10.2179  10.7102  10.7102  10.7160  10.7160  11.4098  11.4098
    12.5430  12.5430  13.6931  13.6931  14.0590  14.0590  14.3214  14.3214
    15.2999  15.2999  15.4890  15.4890  15.9435  15.9435  17.3236  17.3236

          k = 0.1750 0.3250 0.0447 (  8036 PWs)   bands (ev):

   -11.9894 -11.9894 -11.9862 -11.9862 -11.9804 -11.9804 -11.9786 -11.9786
   -11.9661 -11.9661 -11.9661 -11.9661 -11.9625 -11.9625 -11.9617 -11.9617
    -9.0169  -9.0169  -9.0157  -9.0157  -8.9965  -8.9965  -8.9959  -8.9959
    -8.9908  -8.9908  -8.9859  -8.9859  -8.9697  -8.9697  -8.9654  -8.9654
    -8.9591  -8.9591  -8.9566  -8.9566  -8.9376  -8.9376  -8.9363  -8.9363
     0.6245   0.6245   0.9508   0.9508   1.3437   1.3437   1.8113   1.8113
     7.5405   7.5405   7.6421   7.6421   7.9966   7.9966   8.0955   8.0955
     8.3869   8.3869   8.5773   8.5773   8.9871   8.9871   9.0632   9.0632
     9.3734   9.3734   9.4792   9.4792   9.5675   9.5675   9.5708   9.5708
    10.4697  10.4697  10.8353  10.8353  10.9009  10.9009  11.4052  11.4052
    12.4848  12.4848  13.2243  13.2243  13.7315  13.7315  13.8424  13.8424
    14.8885  14.8885  15.3251  15.3251  16.1860  16.1860  17.5812  17.5812

          k = 0.2000 0.3000 0.0511 (  8045 PWs)   bands (ev):

   -11.9877 -11.9877 -11.9841 -11.9841 -11.9779 -11.9779 -11.9760 -11.9760
   -11.9685 -11.9685 -11.9680 -11.9680 -11.9647 -11.9647 -11.9638 -11.9638
    -9.0118  -9.0118  -9.0102  -9.0102  -8.9945  -8.9945  -8.9915  -8.9915
    -8.9848  -8.9848  -8.9829  -8.9829  -8.9710  -8.9710  -8.9693  -8.9693
    -8.9641  -8.9641  -8.9601  -8.9601  -8.9447  -8.9447  -8.9433  -8.9433
     0.5783   0.5783   0.8933   0.8933   1.3344   1.3344   1.7974   1.7974
     7.5540   7.5540   7.9534   7.9534   8.1900   8.1900   8.1925   8.1925
     8.4486   8.4486   8.5449   8.5449   8.9665   8.9665   9.0406   9.0406
     9.3535   9.3535   9.4813   9.4813   9.5319   9.5319   9.5697   9.5697
    10.7580  10.7580  11.0066  11.0066  11.0153  11.0153  11.4132  11.4132
    12.4201  12.4201  12.7199  12.7199  13.4189  13.4189  13.5410  13.5410
    14.5017  14.5017  15.2087  15.2087  16.5215  16.5215  17.7963  17.7963

          k = 0.2250 0.2750 0.0575 (  8047 PWs)   bands (ev):

   -11.9864 -11.9864 -11.9826 -11.9826 -11.9755 -11.9755 -11.9736 -11.9736
   -11.9706 -11.9706 -11.9693 -11.9693 -11.9666 -11.9666 -11.9660 -11.9660
    -9.0076  -9.0076  -9.0059  -9.0059  -8.9934  -8.9934  -8.9892  -8.9892
    -8.9788  -8.9788  -8.9784  -8.9784  -8.9734  -8.9734  -8.9734  -8.9734
    -8.9663  -8.9663  -8.9627  -8.9627  -8.9506  -8.9506  -8.9494  -8.9494
     0.5528   0.5528   0.8493   0.8493   1.3386   1.3386   1.7825   1.7825
     7.5591   7.5591   8.1214   8.1214   8.2778   8.2778   8.3078   8.3078
     8.5668   8.5668   8.6031   8.6031   8.9131   8.9131   8.9649   8.9649
     9.2881   9.2881   9.4551   9.4551   9.5500   9.5500   9.5961   9.5961
    11.0254  11.0254  11.0271  11.0271  11.2258  11.2258  11.4454  11.4454
    12.2711  12.2711  12.3602  12.3602  13.1030  13.1030  13.4811  13.4811
    14.2048  14.2048  15.1218  15.1218  16.8874  16.8874  17.9427  17.9427

          k = 0.2500 0.2500 0.0639 (  8047 PWs)   bands (ev):

   -11.9858 -11.9858 -11.9820 -11.9820 -11.9742 -11.9742 -11.9725 -11.9725
   -11.9715 -11.9715 -11.9695 -11.9695 -11.9676 -11.9676 -11.9673 -11.9673
    -9.0058  -9.0058  -9.0042  -9.0042  -8.9926  -8.9926  -8.9885  -8.9885
    -8.9777  -8.9777  -8.9773  -8.9773  -8.9739  -8.9739  -8.9728  -8.9728
    -8.9665  -8.9665  -8.9647  -8.9647  -8.9530  -8.9530  -8.9523  -8.9523
     0.5490   0.5490   0.8220   0.8220   1.3558   1.3558   1.7684   1.7684
     7.5737   7.5737   8.1399   8.1399   8.2959   8.2959   8.3549   8.3549
     8.6411   8.6411   8.7244   8.7244   8.8515   8.8515   8.8807   8.8807
     9.2606   9.2606   9.4398   9.4398   9.5663   9.5663   9.6067   9.6067
    11.0342  11.0342  11.1648  11.1648  11.3407  11.3407  11.4594  11.4594
    12.0443  12.0443  12.3139  12.3139  12.9989  12.9989  13.4909  13.4909
    14.0901  14.0901  15.0585  15.0585  17.1054  17.1054  17.9830  17.9830

          k = 0.2250 0.2250 0.0703 (  8045 PWs)   bands (ev):

   -11.9868 -11.9868 -11.9830 -11.9830 -11.9775 -11.9775 -11.9763 -11.9763
   -11.9741 -11.9741 -11.9735 -11.9735 -11.9699 -11.9699 -11.9678 -11.9678
    -9.0090  -9.0090  -9.0071  -9.0071  -8.9972  -8.9972  -8.9952  -8.9952
    -8.9893  -8.9893  -8.9886  -8.9886  -8.9744  -8.9744  -8.9724  -8.9724
    -8.9638  -8.9638  -8.9604  -8.9604  -8.9555  -8.9555  -8.9504  -8.9504
     0.3128   0.3128   0.5727   0.5727   1.1664   1.1664   1.5670   1.5670
     7.5034   7.5034   8.1314   8.1314   8.4295   8.4295   8.4762   8.4762
     8.6505   8.6505   8.7150   8.7150   8.8002   8.8002   8.8766   8.8766
     9.2334   9.2334   9.4207   9.4207   9.6674   9.6674   9.6736   9.6736
    11.1978  11.1978  11.2738  11.2738  11.5404  11.5404  11.8320  11.8320
    12.1847  12.1847  12.2566  12.2566  13.3055  13.3055  13.5746  13.5746
    14.2511  14.2511  15.0379  15.0379  17.4022  17.4022  18.4426  18.4426

          k = 0.2000 0.2000 0.0767 (  8043 PWs)   bands (ev):

   -11.9880 -11.9880 -11.9843 -11.9843 -11.9812 -11.9812 -11.9802 -11.9802
   -11.9776 -11.9776 -11.9774 -11.9774 -11.9711 -11.9711 -11.9682 -11.9682
    -9.0133  -9.0133  -9.0120  -9.0120  -9.0057  -9.0057  -9.0049  -9.0049
    -9.0013  -9.0013  -8.9996  -8.9996  -8.9722  -8.9722  -8.9692  -8.9692
    -8.9641  -8.9641  -8.9588  -8.9588  -8.9506  -8.9506  -8.9439  -8.9439
     0.0945   0.0945   0.3359   0.3359   0.9972   0.9972   1.3777   1.3777
     7.3824   7.3824   8.0249   8.0249   8.5389   8.5389   8.5639   8.5639
     8.6750   8.6750   8.6919   8.6919   8.8291   8.8291   8.9577   8.9577
     9.2421   9.2421   9.3975   9.3975   9.7244   9.7244   9.7655   9.7655
    11.2431  11.2431  11.3473  11.3473  11.8539  11.8539  12.1814  12.1814
    12.2700  12.2700  12.5152  12.5152  13.6472  13.6472  13.6703  13.6703
    14.4806  14.4806  14.9799  14.9799  17.7389  17.7389  18.7658  18.7658

          k = 0.1750 0.1750 0.0831 (  8042 PWs)   bands (ev):

   -11.9891 -11.9891 -11.9863 -11.9863 -11.9844 -11.9844 -11.9841 -11.9841
   -11.9815 -11.9815 -11.9809 -11.9809 -11.9717 -11.9717 -11.9686 -11.9686
    -9.0198  -9.0198  -9.0197  -9.0197  -9.0143  -9.0143  -9.0136  -9.0136
    -9.0113  -9.0113  -9.0080  -9.0080  -8.9732  -8.9732  -8.9702  -8.9702
    -8.9602  -8.9602  -8.9554  -8.9554  -8.9431  -8.9431  -8.9369  -8.9369
    -0.1023  -0.1023   0.1165   0.1165   0.8495   0.8495   1.2022   1.2022
     7.2422   7.2422   7.8629   7.8629   8.5796   8.5796   8.5837   8.5837
     8.7090   8.7090   8.7212   8.7212   8.9183   8.9183   9.0683   9.0683
     9.2994   9.2994   9.3936   9.3936   9.7597   9.7597   9.8456   9.8456
    11.2004  11.2004  11.4181  11.4181  12.2282  12.2282  12.3811  12.3811
    12.6556  12.6556  12.8062  12.8062  13.8022  13.8022  14.0140  14.0140
    14.7655  14.7655  14.9173  14.9173  18.1142  18.1142  19.0023  19.0023

          k = 0.1500 0.1500 0.0895 (  8033 PWs)   bands (ev):

   -11.9905 -11.9905 -11.9893 -11.9893 -11.9876 -11.9876 -11.9869 -11.9869
   -11.9851 -11.9851 -11.9838 -11.9838 -11.9719 -11.9719 -11.9690 -11.9690
    -9.0286  -9.0286  -9.0281  -9.0281  -9.0236  -9.0236  -9.0233  -9.0233
    -9.0163  -9.0163  -9.0130  -9.0130  -8.9758  -8.9758  -8.9730  -8.9730
    -8.9545  -8.9545  -8.9502  -8.9502  -8.9358  -8.9358  -8.9303  -8.9303
    -0.2748  -0.2748  -0.0820  -0.0820   0.7243   0.7243   1.0422   1.0422
     7.1073   7.1073   7.6826   7.6826   8.5587   8.5587   8.5644   8.5644
     8.7710   8.7710   8.7729   8.7729   9.0131   9.0131   9.1545   9.1545
     9.3990   9.3990   9.4366   9.4366   9.7811   9.7811   9.8920   9.8920
    11.1586  11.1586  11.4953  11.4953  12.6187  12.6187  12.6264  12.6264
    13.0587  13.0587  13.1211  13.1211  13.9891  13.9891  14.3714  14.3714
    14.9137  14.9137  15.0956  15.0956  18.5164  18.5164  19.1708  19.1708

          k = 0.1250 0.1250 0.0959 (  8016 PWs)   bands (ev):

   -11.9924 -11.9924 -11.9924 -11.9924 -11.9904 -11.9904 -11.9897 -11.9897
   -11.9879 -11.9879 -11.9859 -11.9859 -11.9720 -11.9720 -11.9693 -11.9693
    -9.0367  -9.0367  -9.0361  -9.0361  -9.0324  -9.0324  -9.0324  -9.0324
    -9.0196  -9.0196  -9.0167  -9.0167  -8.9784  -8.9784  -8.9759  -8.9759
    -8.9487  -8.9487  -8.9450  -8.9450  -8.9291  -8.9291  -8.9246  -8.9246
    -0.4210  -0.4210  -0.2566  -0.2566   0.6226   0.6226   0.8989   0.8989
     6.9921   6.9921   7.5029   7.5029   8.5313   8.5313   8.5344   8.5344
     8.8163   8.8163   8.8252   8.8252   9.0980   9.0980   9.2024   9.2024
     9.5141   9.5141   9.5253   9.5253   9.7891   9.7891   9.8942   9.8942
    11.1679  11.1679  11.5750  11.5750  12.8617  12.8617  13.0086  13.0086
    13.4573  13.4573  13.4591  13.4591  14.2336  14.2336  14.6063  14.6063
    15.1126  15.1126  15.4638  15.4638  18.9081  18.9081  19.2267  19.2267

          k = 0.1000 0.1000 0.1023 (  8009 PWs)   bands (ev):

   -11.9952 -11.9952 -11.9950 -11.9950 -11.9928 -11.9928 -11.9924 -11.9924
   -11.9895 -11.9895 -11.9873 -11.9873 -11.9720 -11.9720 -11.9697 -11.9697
    -9.0436  -9.0436  -9.0432  -9.0432  -9.0400  -9.0400  -9.0400  -9.0400
    -9.0222  -9.0222  -9.0197  -9.0197  -8.9806  -8.9806  -8.9785  -8.9785
    -8.9436  -8.9436  -8.9407  -8.9407  -8.9232  -8.9232  -8.9197  -8.9197
    -0.5391  -0.5391  -0.4054  -0.4054   0.5449   0.5449   0.7738   0.7738
     6.9044   6.9044   7.3342   7.3342   8.5050   8.5050   8.5064   8.5064
     8.8531   8.8531   8.8627   8.8627   9.1731   9.1731   9.2365   9.2365
     9.6202   9.6202   9.6225   9.6225   9.7841   9.7841   9.8577   9.8577
    11.2332  11.2332  11.6451  11.6451  13.0936  13.0936  13.3267  13.3267
    13.8270  13.8270  13.8504  13.8504  14.5150  14.5150  14.7327  14.7327
    15.5217  15.5217  15.8632  15.8632  19.0984  19.0984  19.1566  19.1566

          k = 0.0750 0.0750 0.1087 (  8014 PWs)   bands (ev):

   -11.9975 -11.9975 -11.9973 -11.9973 -11.9950 -11.9950 -11.9949 -11.9949
   -11.9904 -11.9904 -11.9886 -11.9886 -11.9719 -11.9719 -11.9701 -11.9701
    -9.0491  -9.0491  -9.0488  -9.0488  -9.0463  -9.0463  -9.0462  -9.0462
    -9.0242  -9.0242  -9.0223  -9.0223  -8.9824  -8.9824  -8.9807  -8.9807
    -8.9394  -8.9394  -8.9372  -8.9372  -8.9185  -8.9185  -8.9160  -8.9160
    -0.6281  -0.6281  -0.5266  -0.5266   0.4916   0.4916   0.6679   0.6679
     6.8481   6.8481   7.1831   7.1831   8.4828   8.4828   8.4833   8.4833
     8.8839   8.8839   8.8877   8.8877   9.2379   9.2379   9.2692   9.2692
     9.7039   9.7039   9.7048   9.7048   9.7681   9.7681   9.8019   9.8019
    11.3329  11.3329  11.6914  11.6914  13.3112  13.3112  13.5542  13.5542
    14.2135  14.2135  14.2317  14.2317  14.7933  14.7933  14.8770  14.8770
    16.0064  16.0064  16.2847  16.2847  18.8035  18.8035  19.0025  19.0025

          k = 0.0500 0.0500 0.1150 (  8024 PWs)   bands (ev):

   -11.9991 -11.9991 -11.9991 -11.9991 -11.9968 -11.9968 -11.9968 -11.9968
   -11.9909 -11.9909 -11.9896 -11.9896 -11.9718 -11.9718 -11.9705 -11.9705
    -9.0531  -9.0531  -9.0529  -9.0529  -9.0509  -9.0509  -9.0508  -9.0508
    -9.0257  -9.0257  -9.0243  -9.0243  -8.9836  -8.9836  -8.9824  -8.9824
    -8.9361  -8.9361  -8.9347  -8.9347  -8.9150  -8.9150  -8.9134  -8.9134
    -0.6872  -0.6872  -0.6189  -0.6189   0.4625   0.4625   0.5824   0.5824
     6.8249   6.8249   7.0543   7.0543   8.4661   8.4661   8.4663   8.4663
     8.9054   8.9054   8.9072   8.9072   9.2896   9.2896   9.2998   9.2998
     9.7387   9.7387   9.7440   9.7440   9.7685   9.7685   9.7687   9.7687
    11.4419  11.4419  11.7038  11.7038  13.5075  13.5075  13.6987  13.6987
    14.5811  14.5811  14.5836  14.5836  15.0170  15.0170  15.0288  15.0288
    16.5154  16.5154  16.7120  16.7120  18.4655  18.4655  18.6281  18.6281

          k = 0.0250 0.0250 0.1214 (  8024 PWs)   bands (ev):

   -12.0003 -12.0003 -12.0002 -12.0002 -11.9980 -11.9980 -11.9979 -11.9979
   -11.9910 -11.9910 -11.9904 -11.9904 -11.9716 -11.9716 -11.9708 -11.9708
    -9.0555  -9.0555  -9.0554  -9.0554  -9.0537  -9.0537  -9.0536  -9.0536
    -9.0264  -9.0264  -9.0257  -9.0257  -8.9842  -8.9842  -8.9835  -8.9835
    -8.9340  -8.9340  -8.9333  -8.9333  -8.9127  -8.9127  -8.9119  -8.9119
    -0.7160  -0.7160  -0.6816  -0.6816   0.4576   0.4576   0.5182   0.5182
     6.8350   6.8350   6.9516   6.9516   8.4558   8.4558   8.4559   8.4559
     8.9178   8.9178   8.9207   8.9207   9.3230   9.3230   9.3235   9.3235
     9.7106   9.7106   9.7160   9.7160   9.8018   9.8018   9.8019   9.8019
    11.5426  11.5426  11.6801  11.6801  13.6636  13.6636  13.7672  13.7672
    14.8736  14.8736  14.8835  14.8835  15.1176  15.1176  15.1308  15.1308
    16.9964  16.9964  17.0981  17.0981  18.2035  18.2035  18.3033  18.3033

          k = 0.0000 0.0000 0.1278 (  8046 PWs)   bands (ev):

   -12.0008 -12.0008 -12.0008 -12.0008 -11.9983 -11.9983 -11.9983 -11.9983
   -11.9909 -11.9909 -11.9909 -11.9909 -11.9714 -11.9714 -11.9714 -11.9714
    -9.0564  -9.0564  -9.0564  -9.0564  -9.0546  -9.0546  -9.0546  -9.0546
    -9.0265  -9.0265  -9.0264  -9.0264  -8.9843  -8.9843  -8.9843  -8.9843
    -8.9333  -8.9333  -8.9333  -8.9333  -8.9116  -8.9116  -8.9116  -8.9116
    -0.7141  -0.7141  -0.7141  -0.7141   0.4764   0.4764   0.4764   0.4764
     6.8777   6.8777   6.8778   6.8778   8.4523   8.4523   8.4524   8.4524
     8.9237   8.9237   8.9238   8.9238   9.3336   9.3336   9.3337   9.3337
     9.7019   9.7019   9.7020   9.7020   9.8134   9.8134   9.8135   9.8135
    11.6243  11.6243  11.6243  11.6243  13.7554  13.7554  13.7554  13.7554
    15.0369  15.0369  15.0369  15.0369  15.1128  15.1128  15.1128  15.1128
    17.2694  17.2694  17.2694  17.2694  18.1215  18.1215  18.1215  18.1215

     Writing all to output data dir ./Bi2Pd/Bi2Pd.save/
 
     init_run     :      0.83s CPU      1.02s WALL (       1 calls)
     electrons    :    168.17s CPU    172.05s WALL (       1 calls)

     Called by init_run:
     wfcinit      :      0.00s CPU      0.00s WALL (       1 calls)
     wfcinit:atom :      0.07s CPU      0.11s WALL (      41 calls)
     wfcinit:wfcr :      5.68s CPU      5.87s WALL (      41 calls)
     potinit      :      0.01s CPU      0.02s WALL (       1 calls)
     hinit0       :      0.24s CPU      0.25s WALL (       1 calls)

     Called by electrons:
     c_bands      :    168.17s CPU    172.05s WALL (       1 calls)
     v_of_rho     :      0.00s CPU      0.01s WALL (       1 calls)
     v_h          :      0.00s CPU      0.00s WALL (       1 calls)
     v_xc         :      0.00s CPU      0.00s WALL (       1 calls)
     newd         :      0.55s CPU      0.72s WALL (       1 calls)

     Called by c_bands:
     init_us_2    :      0.04s CPU      0.06s WALL (      41 calls)
     init_us_2:cp :      0.04s CPU      0.06s WALL (      41 calls)
     cegterg      :    160.03s CPU    163.56s WALL (      87 calls)

     Called by sum_band:

     Called by *egterg:
     cdiaghg      :      9.09s CPU      9.16s WALL (    1468 calls)
     cegterg:over :     18.98s CPU     19.32s WALL (    1427 calls)
     cegterg:upda :     10.39s CPU     10.41s WALL (    1427 calls)
     cegterg:last :     28.04s CPU     28.05s WALL (     842 calls)
     h_psi        :     81.64s CPU     84.43s WALL (    1555 calls)
     s_psi        :     11.86s CPU     12.06s WALL (    1555 calls)
     g_psi        :      0.60s CPU      0.60s WALL (    1427 calls)

     Called by h_psi:
     h_psi:calbec :     10.93s CPU     11.19s WALL (    1555 calls)
     vloc_psi     :     57.24s CPU     59.64s WALL (    1555 calls)
     add_vuspsi   :     12.33s CPU     12.38s WALL (    1555 calls)

     General routines
     calbec       :     10.93s CPU     11.19s WALL (    1555 calls)
     fft          :      0.01s CPU      0.01s WALL (      12 calls)
     ffts         :      0.00s CPU      0.00s WALL (       4 calls)
     fftw         :     34.07s CPU     35.49s WALL (  350752 calls)
     interpolate  :      0.00s CPU      0.00s WALL (       4 calls)
     davcio       :      0.09s CPU      0.15s WALL (      82 calls)
 
     Parallel routines
 
     PWSCF        :   2m49.63s CPU   2m54.15s WALL

 
   This run was terminated on:  13:40:51   6Jan2024            

=------------------------------------------------------------------------------=
   JOB DONE.
=------------------------------------------------------------------------------=
