
     Program DOS v.7.2 starts on  6Jan2024 at 14:36:22 

     This program is part of the open-source Quantum ESPRESSO suite
     for quantum simulation of materials; please cite
         "P. Giannozzi et al., J. Phys.:Condens. Matter 21 395502 (2009);
         "P. Giannozzi et al., J. Phys.:Condens. Matter 29 465901 (2017);
         "P. Giannozzi et al., J. Chem. Phys. 152 154105 (2020);
          URL http://www.quantum-espresso.org", 
     in publications or presentations arising from this work. More details at
     http://www.quantum-espresso.org/quote

     Parallel version (MPI), running on     4 processors

     MPI processes distributed on     1 nodes
     R & G space division:  proc/nbgrp/npool/nimage =       4
     7111 MiB available memory on the printing compute node when the environment starts
 

     Reading xml data from directory:

     ./Bi2Pd/Bi2Pd.save/
     file Bi.rel-pz-dn-rrkjus_psl.1.0.0.UPF: wavefunction(s)  5D 5D renormalized
     file Pd.rel-pz-n-rrkjus_psl.1.0.0.UPF: wavefunction(s)  4D 4D renormalized

     IMPORTANT: XC functional enforced from input :
     Exchange-correlation= PZ
                           (   1   1   0   0   0   0   0)
     Any further DFT definition will be discarded
     Please, verify this is what you really want

 
     Parallelization info
     --------------------
     sticks:   dense  smooth     PW     G-vecs:    dense   smooth      PW
     Min         439     194     59                54325    16096    2617
     Max         440     195     61                54338    16109    2620
     Sum        1757     777    241               217317    64403   10475
 
     Using Slab Decomposition
 

     Tetrahedra used

 
     DOS          :     51.57s CPU     51.89s WALL

 
   This run was terminated on:  14:37:14   6Jan2024            

=------------------------------------------------------------------------------=
   JOB DONE.
=------------------------------------------------------------------------------=
