
     Program PWSCF v.7.2 starts on  3Dec2023 at  1:22:31 

     This program is part of the open-source Quantum ESPRESSO suite
     for quantum simulation of materials; please cite
         "P. Giannozzi et al., J. Phys.:Condens. Matter 21 395502 (2009);
         "P. Giannozzi et al., J. Phys.:Condens. Matter 29 465901 (2017);
         "P. Giannozzi et al., J. Chem. Phys. 152 154105 (2020);
          URL http://www.quantum-espresso.org", 
     in publications or presentations arising from this work. More details at
     http://www.quantum-espresso.org/quote

     Parallel version (MPI), running on     4 processors

     MPI processes distributed on     1 nodes
     13951 MiB available memory on the printing compute node when the environment starts
 
     Waiting for input...
     Reading input from standard input

     Current dimensions of program PWSCF are:
     Max number of different atomic species (ntypx) = 10
     Max number of k-points (npk) =  40000
     Max angular momentum in pseudopotentials (lmaxx) =  4
     file O.pbe-n-kjpaw_psl.0.1.UPF: wavefunction(s)  2P renormalized

     Atomic positions and unit cell read from directory:
     ./outdir/NiO_wU.save/
 
 
     R & G space division:  proc/nbgrp/npool/nimage =       4
     Subspace diagonalization in iterative solution of the eigenvalue problem:
     a serial algorithm will be used

 
     Parallelization info
     --------------------
     sticks:   dense  smooth     PW     G-vecs:    dense   smooth      PW
     Min         513     206     71                11637     2965     603
     Max         514     207     73                11639     2966     604
     Sum        2055     825    287                46553    11861    2413
 
     Using Slab Decomposition
 


     bravais-lattice index     =            5
     lattice parameter (alat)  =       9.6715  a.u.
     unit-cell volume          =     246.2189 (a.u.)^3
     number of atoms/cell      =            4
     number of atomic types    =            3
     number of electrons       =        48.00 (up:  24.00, down:  24.00)
     number of Kohn-Sham states=           36
     kinetic-energy cutoff     =      50.0000  Ry
     charge density cutoff     =     500.0000  Ry
     Exchange-correlation= SLA  PW   PBX  PBC
                           (   1   4   3   4   0   0   0)
     Hubbard projectors: ortho-atomic
     Hubbard parameters of DFT+U (Dudarev formulation) in eV:
     U(Ni1-3d) =  7.6000
     U(Ni2-3d) =  7.6000

     Internal variables: lda_plus_u = T, lda_plus_u_kind = 0

     celldm(1)=   9.671550  celldm(2)=   0.000000  celldm(3)=   0.000000
     celldm(4)=   0.833333  celldm(5)=   0.000000  celldm(6)=   0.000000

     crystal axes: (cart. coord. in units of alat)
               a(1) = (   0.288675  -0.166667   0.942809 )  
               a(2) = (   0.000000   0.333333   0.942809 )  
               a(3) = (  -0.288675  -0.166667   0.942809 )  

     reciprocal axes: (cart. coord. in units 2 pi/alat)
               b(1) = (  1.732051 -1.000000  0.353553 )  
               b(2) = (  0.000000  2.000000  0.353553 )  
               b(3) = ( -1.732051 -1.000000  0.353553 )  


     PseudoPot. # 1 for Ni read from file:
     ~/q-e/pseudo/ni_pbe_v1.4.uspp.F.UPF
     MD5 check sum: Not computed, couldn't open file
     Pseudo is Ultrasoft + core correction, Zval = 18.0
     Generated by new atomic code, or converted to UPF format
     Using radial grid of  865 points,  6 beta functions with: 
                l(1) =   0
                l(2) =   0
                l(3) =   1
                l(4) =   1
                l(5) =   2
                l(6) =   2
     Q(r) pseudized with 10 coefficients,  rinner =    0.980   0.980   0.980
                                                       0.980   0.980

     PseudoPot. # 2 for Ni read from file:
     ~/q-e/pseudo/ni_pbe_v1.4.uspp.F.UPF
     MD5 check sum: Not computed, couldn't open file
     Pseudo is Ultrasoft + core correction, Zval = 18.0
     Generated by new atomic code, or converted to UPF format
     Using radial grid of  865 points,  6 beta functions with: 
                l(1) =   0
                l(2) =   0
                l(3) =   1
                l(4) =   1
                l(5) =   2
                l(6) =   2
     Q(r) pseudized with 10 coefficients,  rinner =    0.980   0.980   0.980
                                                       0.980   0.980

     PseudoPot. # 3 for O  read from file:
     ~/q-e/pseudo/O.pbe-n-kjpaw_psl.0.1.UPF
     MD5 check sum: Not computed, couldn't open file
     Pseudo is Projector augmented-wave + core cor, Zval =  6.0
     Generated using "atomic" code by A. Dal Corso  v.5.0.99 svn rev. 10869
     Shape of augmentation charge: BESSEL
     Using radial grid of 1095 points,  4 beta functions with: 
                l(1) =   0
                l(2) =   0
                l(3) =   1
                l(4) =   1
     Q(r) pseudized with 0 coefficients 


     atomic species   valence    mass     pseudopotential
     Ni1              18.00    58.69340     Ni( 1.00)
     Ni2              18.00    58.69340     Ni( 1.00)
     O                 6.00    15.99900     O ( 1.00)

     Starting magnetic structure 
     atomic species   magnetization
     Ni1             0.200
     Ni2            -0.200
     O               0.000

     12 Sym. Ops., with inversion, found



   Cartesian axes

     site n.     atom                  positions (alat units)
         1        Ni1    tau(   1) = (   0.0000000   0.0000000   0.0000000  )
         2        Ni2    tau(   2) = (   0.0000000   0.6666667   0.4714045  )
         3        O      tau(   3) = (   0.2886751  -0.1666667   0.2357023  )
         4        O      tau(   4) = (  -0.2886751   0.1666667  -0.2357023  )

     number of k points=   189 (tetrahedron method)

     Number of k-points >= 100: set verbosity='high' to print them.

     Dense  grid:    46553 G-vectors     FFT dimensions: (  72,  72,  72)

     Smooth grid:    11861 G-vectors     FFT dimensions: (  45,  45,  45)

     Estimated max dynamical RAM per process >      51.04 MB

     Estimated total dynamical RAM >     204.15 MB

     Check: negative core charge=   -0.000006
     Generating pointlists ...
     new r_m :   0.1684 (alat units)  1.6287 (a.u.) for type    1
     new r_m :   0.1684 (alat units)  1.6287 (a.u.) for type    2
     new r_m :   0.1684 (alat units)  1.6287 (a.u.) for type    3

     The potential is recalculated from file :
     ./outdir/NiO_wU.save/charge-density


     STARTING HUBBARD OCCUPATIONS:

     =================== HUBBARD OCCUPATIONS ===================
     ------------------------ ATOM    1 ------------------------
     Tr[ns(  1)] (up, down, total) =   4.97444  3.21919  8.19363
     Atomic magnetic moment for atom   1 =   1.75526
     SPIN  1
     eigenvalues:
       0.995  0.995  0.995  0.995  0.995
     eigenvectors (columns):
       1.000 -0.000  0.000 -0.000  0.000
       0.000  0.137 -0.564 -0.700 -0.416
       0.000  0.564  0.137 -0.416  0.700
      -0.000 -0.792 -0.192 -0.296  0.498
      -0.000 -0.192  0.792 -0.498 -0.296
     occupation matrix ns (before diag.):
       0.995  0.000  0.000  0.000  0.000
       0.000  0.995  0.000 -0.000  0.000
       0.000  0.000  0.995  0.000 -0.000
       0.000 -0.000  0.000  0.995 -0.000
       0.000  0.000 -0.000 -0.000  0.995
     SPIN  2
     eigenvalues:
       0.123  0.123  0.991  0.991  0.991
     eigenvectors (columns):
      -0.000  0.000 -1.000  0.000  0.000
       0.707  0.408 -0.000 -0.138 -0.561
       0.408 -0.707 -0.000 -0.561  0.138
       0.289 -0.500  0.000  0.793 -0.195
       0.500  0.289  0.000  0.195  0.793
     occupation matrix ns (before diag.):
       0.991 -0.000 -0.000  0.000  0.000
      -0.000  0.413 -0.000  0.000 -0.409
      -0.000 -0.000  0.413 -0.409  0.000
       0.000  0.000 -0.409  0.701 -0.000
       0.000 -0.409  0.000 -0.000  0.701
     ------------------------ ATOM    2 ------------------------
     Tr[ns(  2)] (up, down, total) =   3.21919  4.97444  8.19363
     Atomic magnetic moment for atom   2 =  -1.75526
     SPIN  1
     eigenvalues:
       0.123  0.123  0.991  0.991  0.991
     eigenvectors (columns):
      -0.000  0.000 -1.000  0.000  0.000
       0.710  0.403 -0.000 -0.138 -0.561
       0.403 -0.710 -0.000 -0.561  0.138
       0.286 -0.502  0.000  0.793 -0.195
       0.502  0.286  0.000  0.195  0.793
     occupation matrix ns (before diag.):
       0.991 -0.000 -0.000  0.000  0.000
      -0.000  0.413 -0.000  0.000 -0.409
      -0.000 -0.000  0.413 -0.409  0.000
       0.000  0.000 -0.409  0.701 -0.000
       0.000 -0.409  0.000 -0.000  0.701
     SPIN  2
     eigenvalues:
       0.995  0.995  0.995  0.995  0.995
     eigenvectors (columns):
       1.000 -0.000  0.000 -0.000  0.000
       0.000  0.137 -0.564 -0.700 -0.416
       0.000  0.564  0.137 -0.416  0.700
      -0.000 -0.792 -0.192 -0.297  0.498
      -0.000 -0.192  0.792 -0.498 -0.297
     occupation matrix ns (before diag.):
       0.995  0.000  0.000  0.000  0.000
       0.000  0.995  0.000 -0.000  0.000
       0.000  0.000  0.995  0.000 -0.000
       0.000 -0.000  0.000  0.995 -0.000
       0.000  0.000 -0.000 -0.000  0.995

     Number of occupied Hubbard levels =   16.3873

     Atomic wfc used for Hubbard projectors are orthogonalized

     Starting wfcs are   34 randomized atomic wfcs +    2 random wfcs
     Checking if some PAW data can be deallocated... 

     Band Structure Calculation
     Davidson diagonalization with overlap

     ethr =  2.08E-09,  avg # of iterations = 14.5

     total cpu time spent up to now is       34.6 secs

     End of band structure calculation

     Number of k-points >= 100: set verbosity='high' to print the bands.

     the spin up/dw Fermi energies are    15.7004   15.7004 ev
     (compare with:    12.8289   12.8289 eV, computed in scf)

     Writing all to output data dir ./outdir/NiO_wU.save/
 
     init_run     :      0.47s CPU      0.55s WALL (       1 calls)
     electrons    :     33.16s CPU     33.89s WALL (       1 calls)

     Called by init_run:
     wfcinit      :      0.20s CPU      0.25s WALL (       1 calls)
     potinit      :      0.07s CPU      0.08s WALL (       1 calls)
     hinit0       :      0.10s CPU      0.11s WALL (       1 calls)

     Called by electrons:
     c_bands      :     33.08s CPU     33.81s WALL (       1 calls)
     v_of_rho     :      0.05s CPU      0.05s WALL (       1 calls)
     newd         :      0.04s CPU      0.05s WALL (       1 calls)
     PAW_pot      :      0.02s CPU      0.03s WALL (       1 calls)

     Called by c_bands:
     init_us_2    :      0.04s CPU      0.05s WALL (     756 calls)
     init_us_2:cp :      0.04s CPU      0.05s WALL (     756 calls)
     cegterg      :     30.02s CPU     30.57s WALL (     394 calls)

     Called by *egterg:
     cdiaghg      :      4.68s CPU      4.76s WALL (    5877 calls)
     h_psi        :     24.80s CPU     25.37s WALL (    6271 calls)
     s_psi        :      0.38s CPU      0.40s WALL (    6649 calls)
     g_psi        :      0.07s CPU      0.07s WALL (    5499 calls)

     Called by h_psi:
     h_psi:calbec :      0.48s CPU      0.49s WALL (    6271 calls)
     vloc_psi     :     23.65s CPU     24.19s WALL (    6271 calls)
     add_vuspsi   :      0.36s CPU      0.37s WALL (    6271 calls)
     vhpsi        :      0.25s CPU      0.26s WALL (    6271 calls)

     General routines
     calbec       :      0.67s CPU      0.69s WALL (   12920 calls)
     fft          :      0.01s CPU      0.02s WALL (      23 calls)
     ffts         :      0.00s CPU      0.00s WALL (       2 calls)
     fftw         :     18.29s CPU     18.71s WALL (  260466 calls)
     interpolate  :      0.00s CPU      0.00s WALL (       2 calls)
     davcio       :      0.11s CPU      0.13s WALL (    1512 calls)
 
     Parallel routines

     Hubbard U routines
     vhpsi        :      0.25s CPU      0.26s WALL (    6271 calls)
 
     PWSCF        :     33.96s CPU     34.96s WALL

 
   This run was terminated on:   1:23: 5   3Dec2023            

=------------------------------------------------------------------------------=
   JOB DONE.
=------------------------------------------------------------------------------=
