
     Program PWSCF v.7.2 starts on  3Dec2023 at  1:20:48 

     This program is part of the open-source Quantum ESPRESSO suite
     for quantum simulation of materials; please cite
         "P. Giannozzi et al., J. Phys.:Condens. Matter 21 395502 (2009);
         "P. Giannozzi et al., J. Phys.:Condens. Matter 29 465901 (2017);
         "P. Giannozzi et al., J. Chem. Phys. 152 154105 (2020);
          URL http://www.quantum-espresso.org", 
     in publications or presentations arising from this work. More details at
     http://www.quantum-espresso.org/quote

     Parallel version (MPI), running on     4 processors

     MPI processes distributed on     1 nodes
     14006 MiB available memory on the printing compute node when the environment starts
 
     Waiting for input...
     Reading input from standard input

     Current dimensions of program PWSCF are:
     Max number of different atomic species (ntypx) = 10
     Max number of k-points (npk) =  40000
     Max angular momentum in pseudopotentials (lmaxx) =  4
     file O.pbe-n-kjpaw_psl.0.1.UPF: wavefunction(s)  2P renormalized
 
     R & G space division:  proc/nbgrp/npool/nimage =       4
     Subspace diagonalization in iterative solution of the eigenvalue problem:
     a serial algorithm will be used

 
     Parallelization info
     --------------------
     sticks:   dense  smooth     PW     G-vecs:    dense   smooth      PW
     Min         513     206     66                11637     2965     533
     Max         514     207     67                11639     2966     535
     Sum        2055     825    265                46553    11861    2135
 
     Using Slab Decomposition
 


     bravais-lattice index     =            5
     lattice parameter (alat)  =       9.6715  a.u.
     unit-cell volume          =     246.2189 (a.u.)^3
     number of atoms/cell      =            4
     number of atomic types    =            3
     number of electrons       =        48.00 (up:  24.00, down:  24.00)
     number of Kohn-Sham states=           36
     kinetic-energy cutoff     =      50.0000  Ry
     charge density cutoff     =     500.0000  Ry
     scf convergence threshold =      1.0E-09
     mixing beta               =       0.3000
     number of iterations used =            8  plain     mixing
     Exchange-correlation= SLA  PW   PBX  PBC
                           (   1   4   3   4   0   0   0)
     Hubbard projectors: ortho-atomic
     Hubbard parameters of DFT+U (Dudarev formulation) in eV:
     U(Ni1-3d) =  7.6000
     U(Ni2-3d) =  7.6000

     Internal variables: lda_plus_u = T, lda_plus_u_kind = 0

     celldm(1)=   9.671550  celldm(2)=   0.000000  celldm(3)=   0.000000
     celldm(4)=   0.833333  celldm(5)=   0.000000  celldm(6)=   0.000000

     crystal axes: (cart. coord. in units of alat)
               a(1) = (   0.288675  -0.166667   0.942809 )  
               a(2) = (   0.000000   0.333333   0.942809 )  
               a(3) = (  -0.288675  -0.166667   0.942809 )  

     reciprocal axes: (cart. coord. in units 2 pi/alat)
               b(1) = (  1.732051 -1.000000  0.353553 )  
               b(2) = (  0.000000  2.000000  0.353553 )  
               b(3) = ( -1.732051 -1.000000  0.353553 )  


     PseudoPot. # 1 for Ni read from file:
     ~/q-e/pseudo/ni_pbe_v1.4.uspp.F.UPF
     MD5 check sum: Not computed, couldn't open file
     Pseudo is Ultrasoft + core correction, Zval = 18.0
     Generated by new atomic code, or converted to UPF format
     Using radial grid of  865 points,  6 beta functions with: 
                l(1) =   0
                l(2) =   0
                l(3) =   1
                l(4) =   1
                l(5) =   2
                l(6) =   2
     Q(r) pseudized with 10 coefficients,  rinner =    0.980   0.980   0.980
                                                       0.980   0.980

     PseudoPot. # 2 for Ni read from file:
     ~/q-e/pseudo/ni_pbe_v1.4.uspp.F.UPF
     MD5 check sum: Not computed, couldn't open file
     Pseudo is Ultrasoft + core correction, Zval = 18.0
     Generated by new atomic code, or converted to UPF format
     Using radial grid of  865 points,  6 beta functions with: 
                l(1) =   0
                l(2) =   0
                l(3) =   1
                l(4) =   1
                l(5) =   2
                l(6) =   2
     Q(r) pseudized with 10 coefficients,  rinner =    0.980   0.980   0.980
                                                       0.980   0.980

     PseudoPot. # 3 for O  read from file:
     ~/q-e/pseudo/O.pbe-n-kjpaw_psl.0.1.UPF
     MD5 check sum: Not computed, couldn't open file
     Pseudo is Projector augmented-wave + core cor, Zval =  6.0
     Generated using "atomic" code by A. Dal Corso  v.5.0.99 svn rev. 10869
     Shape of augmentation charge: BESSEL
     Using radial grid of 1095 points,  4 beta functions with: 
                l(1) =   0
                l(2) =   0
                l(3) =   1
                l(4) =   1
     Q(r) pseudized with 0 coefficients 


     atomic species   valence    mass     pseudopotential
     Ni1              18.00    58.69340     Ni( 1.00)
     Ni2              18.00    58.69340     Ni( 1.00)
     O                 6.00    15.99900     O ( 1.00)

     Starting magnetic structure 
     atomic species   magnetization
     Ni1             0.200
     Ni2            -0.200
     O               0.000

     12 Sym. Ops., with inversion, found



   Cartesian axes

     site n.     atom                  positions (alat units)
         1        Ni1    tau(   1) = (   0.0000000   0.0000000   0.0000000  )
         2        Ni2    tau(   2) = (   0.0000000   0.6666667   0.4714045  )
         3        O      tau(   3) = (   0.2886751  -0.1666667   0.2357023  )
         4        O      tau(   4) = (  -0.2886751   0.1666667  -0.2357023  )

     number of k points=    13
                       cart. coord. in units 2pi/alat
        k(    1) = (   0.0000000   0.0000000   0.0000000), wk =   0.0156250
        k(    2) = (  -0.4330127  -0.2500000   0.0883883), wk =   0.0937500
        k(    3) = (   0.8660254   0.5000000  -0.1767767), wk =   0.0468750
        k(    4) = (  -0.4330127   0.2500000   0.1767767), wk =   0.0937500
        k(    5) = (   0.8660254   1.0000000  -0.0883883), wk =   0.1875000
        k(    6) = (   0.4330127   0.7500000   0.0000000), wk =   0.0937500
        k(    7) = (   0.8660254  -0.5000000  -0.3535534), wk =   0.0468750
        k(    8) = (   0.0000000   0.0000000   0.2651650), wk =   0.0312500
        k(    9) = (   1.2990381   0.7500000   0.0000000), wk =   0.0937500
        k(   10) = (   0.8660254   0.5000000   0.0883883), wk =   0.0937500
        k(   11) = (   1.2990381  -0.7500000  -0.2651650), wk =   0.0937500
        k(   12) = (   0.8660254  -1.0000000  -0.1767767), wk =   0.0937500
        k(   13) = (   0.0000000   0.0000000  -0.5303301), wk =   0.0156250

     Dense  grid:    46553 G-vectors     FFT dimensions: (  72,  72,  72)

     Smooth grid:    11861 G-vectors     FFT dimensions: (  45,  45,  45)

     Estimated max dynamical RAM per process >      65.57 MB

     Estimated total dynamical RAM >     262.28 MB

     Check: negative core charge=   -0.000006
     Generating pointlists ...
     new r_m :   0.1684 (alat units)  1.6287 (a.u.) for type    1
     new r_m :   0.1684 (alat units)  1.6287 (a.u.) for type    2
     new r_m :   0.1684 (alat units)  1.6287 (a.u.) for type    3

     Initial potential from superposition of free atoms

     starting charge      44.0000, renormalised to      48.0000

     STARTING HUBBARD OCCUPATIONS:

     =================== HUBBARD OCCUPATIONS ===================
     ------------------------ ATOM    1 ------------------------
     Tr[ns(  1)] (up, down, total) =   5.00000  3.00000  8.00000
     Atomic magnetic moment for atom   1 =   2.00000
     SPIN  1
     eigenvalues:
       1.000  1.000  1.000  1.000  1.000
     eigenvectors (columns):
       1.000  0.000  0.000  0.000  0.000
       0.000  1.000  0.000  0.000  0.000
       0.000  0.000  1.000  0.000  0.000
       0.000  0.000  0.000  1.000  0.000
       0.000  0.000  0.000  0.000  1.000
     occupation matrix ns (before diag.):
       1.000  0.000  0.000  0.000  0.000
       0.000  1.000  0.000  0.000  0.000
       0.000  0.000  1.000  0.000  0.000
       0.000  0.000  0.000  1.000  0.000
       0.000  0.000  0.000  0.000  1.000
     SPIN  2
     eigenvalues:
       0.600  0.600  0.600  0.600  0.600
     eigenvectors (columns):
       1.000  0.000  0.000  0.000  0.000
       0.000  1.000  0.000  0.000  0.000
       0.000  0.000  1.000  0.000  0.000
       0.000  0.000  0.000  1.000  0.000
       0.000  0.000  0.000  0.000  1.000
     occupation matrix ns (before diag.):
       0.600  0.000  0.000  0.000  0.000
       0.000  0.600  0.000  0.000  0.000
       0.000  0.000  0.600  0.000  0.000
       0.000  0.000  0.000  0.600  0.000
       0.000  0.000  0.000  0.000  0.600
     ------------------------ ATOM    2 ------------------------
     Tr[ns(  2)] (up, down, total) =   3.00000  5.00000  8.00000
     Atomic magnetic moment for atom   2 =  -2.00000
     SPIN  1
     eigenvalues:
       0.600  0.600  0.600  0.600  0.600
     eigenvectors (columns):
       1.000  0.000  0.000  0.000  0.000
       0.000  1.000  0.000  0.000  0.000
       0.000  0.000  1.000  0.000  0.000
       0.000  0.000  0.000  1.000  0.000
       0.000  0.000  0.000  0.000  1.000
     occupation matrix ns (before diag.):
       0.600  0.000  0.000  0.000  0.000
       0.000  0.600  0.000  0.000  0.000
       0.000  0.000  0.600  0.000  0.000
       0.000  0.000  0.000  0.600  0.000
       0.000  0.000  0.000  0.000  0.600
     SPIN  2
     eigenvalues:
       1.000  1.000  1.000  1.000  1.000
     eigenvectors (columns):
       1.000  0.000  0.000  0.000  0.000
       0.000  1.000  0.000  0.000  0.000
       0.000  0.000  1.000  0.000  0.000
       0.000  0.000  0.000  1.000  0.000
       0.000  0.000  0.000  0.000  1.000
     occupation matrix ns (before diag.):
       1.000  0.000  0.000  0.000  0.000
       0.000  1.000  0.000  0.000  0.000
       0.000  0.000  1.000  0.000  0.000
       0.000  0.000  0.000  1.000  0.000
       0.000  0.000  0.000  0.000  1.000

     Number of occupied Hubbard levels =   16.0000

     Atomic wfc used for Hubbard projectors are orthogonalized

     Starting wfcs are   34 randomized atomic wfcs +    2 random wfcs
     Checking if some PAW data can be deallocated... 

     total cpu time spent up to now is        0.6 secs

     Self-consistent Calculation

     iteration #  1     ecut=    50.00 Ry     beta= 0.30
     Davidson diagonalization with overlap
     ethr =  1.00E-02,  avg # of iterations =  5.3

     =================== HUBBARD OCCUPATIONS ===================
     ------------------------ ATOM    1 ------------------------
     Tr[ns(  1)] (up, down, total) =   3.87954  0.68788  4.56741
     Atomic magnetic moment for atom   1 =   3.19166
     SPIN  1
     eigenvalues:
       0.710  0.710  0.763  0.848  0.848
     eigenvectors (columns):
       0.000 -0.000  1.000  0.000 -0.000
       0.130 -0.676 -0.000  0.503  0.523
       0.676  0.130 -0.000  0.523 -0.503
      -0.712 -0.137 -0.000  0.496 -0.477
      -0.137  0.712 -0.000  0.477  0.496
     occupation matrix ns (before diag.):
       0.763  0.000  0.000  0.000  0.000
       0.000  0.783  0.000 -0.000  0.069
       0.000  0.000  0.783  0.069 -0.000
       0.000 -0.000  0.069  0.776 -0.000
       0.000  0.069 -0.000 -0.000  0.776
     SPIN  2
     eigenvalues:
       0.051  0.051  0.180  0.180  0.225
     eigenvectors (columns):
      -0.000 -0.000 -0.000 -0.000  1.000
       0.744 -0.379 -0.048 -0.549 -0.000
       0.379  0.744 -0.549  0.048 -0.000
       0.250  0.491  0.832 -0.072  0.000
       0.491 -0.250  0.072  0.832  0.000
     occupation matrix ns (before diag.):
       0.225  0.000 -0.000  0.000  0.000
       0.000  0.090  0.000 -0.000 -0.060
      -0.000  0.000  0.090 -0.060  0.000
       0.000 -0.000 -0.060  0.141 -0.000
       0.000 -0.060  0.000 -0.000  0.141
     ------------------------ ATOM    2 ------------------------
     Tr[ns(  2)] (up, down, total) =   0.68753  3.87883  4.56636
     Atomic magnetic moment for atom   2 =  -3.19130
     SPIN  1
     eigenvalues:
       0.051  0.051  0.180  0.180  0.225
     eigenvectors (columns):
      -0.000 -0.000 -0.000 -0.000  1.000
       0.744 -0.379 -0.048 -0.549 -0.000
       0.379  0.744 -0.549  0.048 -0.000
       0.250  0.491  0.832 -0.072  0.000
       0.491 -0.250  0.072  0.832  0.000
     occupation matrix ns (before diag.):
       0.225  0.000 -0.000  0.000  0.000
       0.000  0.090  0.000 -0.000 -0.060
      -0.000  0.000  0.090 -0.060  0.000
       0.000 -0.000 -0.060  0.141 -0.000
       0.000 -0.060  0.000 -0.000  0.141
     SPIN  2
     eigenvalues:
       0.710  0.710  0.763  0.848  0.848
     eigenvectors (columns):
       0.000 -0.000  1.000  0.000 -0.000
       0.130 -0.675 -0.000  0.504  0.522
       0.675  0.130 -0.000  0.522 -0.504
      -0.713 -0.138 -0.000  0.495 -0.478
      -0.138  0.713 -0.000  0.478  0.495
     occupation matrix ns (before diag.):
       0.763  0.000  0.000  0.000  0.000
       0.000  0.783  0.000 -0.000  0.069
       0.000  0.000  0.783  0.069 -0.000
       0.000 -0.000  0.069  0.775 -0.000
       0.000  0.069 -0.000 -0.000  0.775

     Number of occupied Hubbard levels =    9.1338

     total cpu time spent up to now is        1.7 secs

     total energy              =    -756.62824576 Ry
     estimated scf accuracy    <      48.48679524 Ry

     total magnetization       =     0.00 Bohr mag/cell
     absolute magnetization    =     6.90 Bohr mag/cell

     iteration #  2     ecut=    50.00 Ry     beta= 0.30
     Davidson diagonalization with overlap
     ethr =  1.00E-02,  avg # of iterations =  3.0

     total cpu time spent up to now is        2.8 secs

     total energy              =    -766.33326798 Ry
     estimated scf accuracy    <      17.50087646 Ry

     total magnetization       =     0.00 Bohr mag/cell
     absolute magnetization    =     0.75 Bohr mag/cell

     iteration #  3     ecut=    50.00 Ry     beta= 0.30
     Davidson diagonalization with overlap
     ethr =  1.00E-02,  avg # of iterations =  2.2

     total cpu time spent up to now is        3.6 secs

     total energy              =    -769.06789957 Ry
     estimated scf accuracy    <       1.05519549 Ry

     total magnetization       =    -0.00 Bohr mag/cell
     absolute magnetization    =     3.96 Bohr mag/cell

     iteration #  4     ecut=    50.00 Ry     beta= 0.30
     Davidson diagonalization with overlap
     ethr =  2.20E-03,  avg # of iterations =  1.5

     total cpu time spent up to now is        4.3 secs

     total energy              =    -769.53933852 Ry
     estimated scf accuracy    <       0.50712117 Ry

     total magnetization       =    -0.00 Bohr mag/cell
     absolute magnetization    =     3.77 Bohr mag/cell

     iteration #  5     ecut=    50.00 Ry     beta= 0.30
     Davidson diagonalization with overlap
     ethr =  1.06E-03,  avg # of iterations =  1.4

     total cpu time spent up to now is        5.1 secs

     total energy              =    -769.55498715 Ry
     estimated scf accuracy    <       0.02662664 Ry

     total magnetization       =    -0.00 Bohr mag/cell
     absolute magnetization    =     3.64 Bohr mag/cell

     iteration #  6     ecut=    50.00 Ry     beta= 0.30
     Davidson diagonalization with overlap
     ethr =  5.55E-05,  avg # of iterations =  2.5

     total cpu time spent up to now is        5.8 secs

     total energy              =    -769.55816629 Ry
     estimated scf accuracy    <       0.00130721 Ry

     total magnetization       =    -0.00 Bohr mag/cell
     absolute magnetization    =     3.69 Bohr mag/cell

     iteration #  7     ecut=    50.00 Ry     beta= 0.30
     Davidson diagonalization with overlap
     ethr =  2.72E-06,  avg # of iterations =  2.3

     total cpu time spent up to now is        6.6 secs

     total energy              =    -769.55795514 Ry
     estimated scf accuracy    <       0.00098582 Ry

     total magnetization       =    -0.00 Bohr mag/cell
     absolute magnetization    =     3.69 Bohr mag/cell

     iteration #  8     ecut=    50.00 Ry     beta= 0.30
     Davidson diagonalization with overlap
     ethr =  2.05E-06,  avg # of iterations =  2.0

     total cpu time spent up to now is        7.4 secs

     total energy              =    -769.55826573 Ry
     estimated scf accuracy    <       0.00017375 Ry

     total magnetization       =     0.00 Bohr mag/cell
     absolute magnetization    =     3.70 Bohr mag/cell

     iteration #  9     ecut=    50.00 Ry     beta= 0.30
     Davidson diagonalization with overlap
     ethr =  3.62E-07,  avg # of iterations =  1.0

     total cpu time spent up to now is        8.1 secs

     total energy              =    -769.55826180 Ry
     estimated scf accuracy    <       0.00004118 Ry

     total magnetization       =     0.00 Bohr mag/cell
     absolute magnetization    =     3.70 Bohr mag/cell

     iteration # 10     ecut=    50.00 Ry     beta= 0.30
     Davidson diagonalization with overlap
     ethr =  8.58E-08,  avg # of iterations =  2.0

     total cpu time spent up to now is        8.9 secs

     total energy              =    -769.55829217 Ry
     estimated scf accuracy    <       0.00001408 Ry

     total magnetization       =     0.00 Bohr mag/cell
     absolute magnetization    =     3.70 Bohr mag/cell

     iteration # 11     ecut=    50.00 Ry     beta= 0.30
     Davidson diagonalization with overlap
     ethr =  2.93E-08,  avg # of iterations =  2.0

     total cpu time spent up to now is        9.8 secs

     total energy              =    -769.55828216 Ry
     estimated scf accuracy    <       0.00001383 Ry

     total magnetization       =    -0.00 Bohr mag/cell
     absolute magnetization    =     3.70 Bohr mag/cell

     iteration # 12     ecut=    50.00 Ry     beta= 0.30
     Davidson diagonalization with overlap
     ethr =  2.88E-08,  avg # of iterations =  2.0

     total cpu time spent up to now is       10.5 secs

     total energy              =    -769.55830889 Ry
     estimated scf accuracy    <       0.00000095 Ry

     total magnetization       =    -0.00 Bohr mag/cell
     absolute magnetization    =     3.70 Bohr mag/cell

     iteration # 13     ecut=    50.00 Ry     beta= 0.30
     Davidson diagonalization with overlap
     ethr =  1.97E-09,  avg # of iterations =  2.0

     total cpu time spent up to now is       11.3 secs

     total energy              =    -769.55830921 Ry
     estimated scf accuracy    <       0.00000040 Ry

     total magnetization       =    -0.00 Bohr mag/cell
     absolute magnetization    =     3.70 Bohr mag/cell

     iteration # 14     ecut=    50.00 Ry     beta= 0.30
     Davidson diagonalization with overlap
     ethr =  8.43E-10,  avg # of iterations =  1.7

     total cpu time spent up to now is       12.1 secs

     total energy              =    -769.55830952 Ry
     estimated scf accuracy    <       0.00000027 Ry

     total magnetization       =    -0.00 Bohr mag/cell
     absolute magnetization    =     3.70 Bohr mag/cell

     iteration # 15     ecut=    50.00 Ry     beta= 0.30
     Davidson diagonalization with overlap
     ethr =  5.71E-10,  avg # of iterations =  2.0

     total cpu time spent up to now is       12.9 secs

     total energy              =    -769.55830959 Ry
     estimated scf accuracy    <       0.00000002 Ry

     total magnetization       =     0.00 Bohr mag/cell
     absolute magnetization    =     3.70 Bohr mag/cell

     iteration # 16     ecut=    50.00 Ry     beta= 0.30
     Davidson diagonalization with overlap
     ethr =  4.75E-11,  avg # of iterations =  2.0
 
     Magnetic moment per site  (integrated on atomic sphere of radius R)
     atom   1 (R=0.168)  charge= 15.6111  magn=  1.7188
     atom   2 (R=0.168)  charge= 15.6111  magn= -1.7188
     atom   3 (R=0.168)  charge=  5.7471  magn=  0.0000
     atom   4 (R=0.168)  charge=  5.7471  magn=  0.0000

     total cpu time spent up to now is       13.7 secs

     End of self-consistent calculation

     =================== HUBBARD OCCUPATIONS ===================
     ------------------------ ATOM    1 ------------------------
     Tr[ns(  1)] (up, down, total) =   4.97444  3.21919  8.19363
     Atomic magnetic moment for atom   1 =   1.75526
     SPIN  1
     eigenvalues:
       0.995  0.995  0.995  0.995  0.995
     eigenvectors (columns):
       1.000 -0.000  0.000 -0.000  0.000
       0.000  0.137 -0.564 -0.700 -0.416
       0.000  0.564  0.137 -0.416  0.700
      -0.000 -0.792 -0.192 -0.296  0.499
      -0.000 -0.192  0.792 -0.499 -0.296
     occupation matrix ns (before diag.):
       0.995  0.000  0.000  0.000  0.000
       0.000  0.995  0.000 -0.000  0.000
       0.000  0.000  0.995  0.000 -0.000
       0.000 -0.000  0.000  0.995 -0.000
       0.000  0.000 -0.000 -0.000  0.995
     SPIN  2
     eigenvalues:
       0.123  0.123  0.991  0.991  0.991
     eigenvectors (columns):
      -0.000  0.000 -1.000  0.000  0.000
       0.710  0.403 -0.000 -0.138 -0.561
       0.403 -0.710 -0.000 -0.561  0.138
       0.285 -0.502  0.000  0.793 -0.195
       0.502  0.285  0.000  0.195  0.793
     occupation matrix ns (before diag.):
       0.991 -0.000 -0.000  0.000  0.000
      -0.000  0.413 -0.000  0.000 -0.409
      -0.000 -0.000  0.413 -0.409  0.000
       0.000  0.000 -0.409  0.701 -0.000
       0.000 -0.409  0.000 -0.000  0.701
     ------------------------ ATOM    2 ------------------------
     Tr[ns(  2)] (up, down, total) =   3.21919  4.97444  8.19363
     Atomic magnetic moment for atom   2 =  -1.75526
     SPIN  1
     eigenvalues:
       0.123  0.123  0.991  0.991  0.991
     eigenvectors (columns):
      -0.000  0.000 -1.000  0.000  0.000
       0.708  0.407 -0.000 -0.138 -0.561
       0.407 -0.708 -0.000 -0.561  0.138
       0.288 -0.501  0.000  0.793 -0.195
       0.501  0.288  0.000  0.195  0.793
     occupation matrix ns (before diag.):
       0.991 -0.000 -0.000  0.000  0.000
      -0.000  0.413 -0.000  0.000 -0.409
      -0.000 -0.000  0.413 -0.409  0.000
       0.000  0.000 -0.409  0.701 -0.000
       0.000 -0.409  0.000 -0.000  0.701
     SPIN  2
     eigenvalues:
       0.995  0.995  0.995  0.995  0.995
     eigenvectors (columns):
       1.000 -0.000  0.000 -0.000  0.000
       0.000  0.137 -0.564 -0.700 -0.417
       0.000  0.564  0.137 -0.417  0.700
      -0.000 -0.792 -0.192 -0.297  0.498
      -0.000 -0.192  0.792 -0.498 -0.297
     occupation matrix ns (before diag.):
       0.995  0.000  0.000  0.000  0.000
       0.000  0.995  0.000 -0.000  0.000
       0.000  0.000  0.995  0.000 -0.000
       0.000 -0.000  0.000  0.995 -0.000
       0.000  0.000 -0.000 -0.000  0.995

     Number of occupied Hubbard levels =   16.3873

 ------ SPIN UP ------------


          k = 0.0000 0.0000 0.0000 (  1479 PWs)   bands (ev):

   -90.9979 -88.5850 -51.3679 -51.3571 -51.3571 -49.0297 -49.0163 -49.0163
    -5.5351  -4.0554   5.3295   6.0523   6.0523   7.4372   7.4372   7.7858
     8.7901   8.7901  10.2445  11.9517  11.9517  11.9535  12.0706  12.0706
    15.9979  17.6208  17.6208  19.9197  24.6303  28.2689  28.2689  31.9647
    33.0569  33.0584  33.0584  35.4573

          k =-0.4330-0.2500 0.0884 (  1466 PWs)   bands (ev):

   -90.9970 -88.5840 -51.3679 -51.3665 -51.3599 -49.0287 -49.0281 -49.0194
    -4.9314  -4.0025   5.8372   6.1881   6.5470   6.9372   7.5431   7.8722
     8.1226   9.0011   9.9142  10.1905  11.0274  11.1967  12.0621  12.3281
    17.1032  17.5577  19.1997  22.6297  23.7617  25.4986  27.3282  29.4195
    29.4790  30.8253  32.8222  35.2876

          k = 0.8660 0.5000-0.1768 (  1470 PWs)   bands (ev):

   -90.9961 -88.5830 -51.3786 -51.3650 -51.3626 -49.0410 -49.0265 -49.0226
    -4.1961  -3.9672   6.0523   6.1980   6.2106   6.7448   7.6011   7.9433
     8.0529   9.0089   9.5623  10.1498  10.5553  10.8789  11.5281  12.1853
    17.5109  17.5297  21.8177  22.0871  24.0831  24.2717  25.9837  25.9956
    29.7167  29.9327  33.3746  33.3810

          k =-0.4330 0.2500 0.1768 (  1480 PWs)   bands (ev):

   -90.9970 -88.5840 -51.3679 -51.3665 -51.3599 -49.0287 -49.0281 -49.0194
    -4.8667  -4.0835   6.1316   6.1893   6.3629   6.7485   7.5428   7.9752
     8.1211   9.0397   9.8070  10.3651  10.6458  10.9335  12.4366  12.6112
    17.4738  17.4810  18.8050  21.9536  24.1737  25.9877  26.4612  29.8086
    30.5596  30.5762  33.3767  34.5873

          k = 0.8660 1.0000-0.0884 (  1465 PWs)   bands (ev):

   -90.9961 -88.5831 -51.3746 -51.3667 -51.3650 -49.0364 -49.0272 -49.0265
    -4.1855  -3.9842   5.8684   6.3681   6.5502   6.8227   7.1409   7.8778
     8.5256   8.7223   9.8128  10.1511  10.2324  10.8492  11.6494  11.9646
    17.3422  17.6960  21.7112  22.5870  24.3850  24.6316  25.3758  26.1091
    28.9958  29.4394  34.2965  34.7034

          k = 0.4330 0.7500 0.0000 (  1466 PWs)   bands (ev):

   -90.9961 -88.5830 -51.3746 -51.3667 -51.3650 -49.0364 -49.0272 -49.0265
    -4.2180  -3.9557   5.7650   6.5424   6.7089   6.9582   7.1894   7.5561
     8.4824   8.7341   9.9905  10.0787  10.1899  10.9109  11.2713  12.0258
    17.1943  17.8788  21.6149  22.9692  25.0996  25.0998  25.2912  25.4154
    27.7534  29.6551  35.8931  36.3527

          k = 0.8660-0.5000-0.3536 (  1494 PWs)   bands (ev):

   -90.9962 -88.5831 -51.3786 -51.3650 -51.3626 -49.0410 -49.0264 -49.0226
    -4.1044  -4.0553   5.3302   6.1604   6.4563   6.9236   7.7619   7.9184
     8.2848   9.0207   9.3072  10.3006  10.5548  10.5558  12.1717  12.3185
    17.7763  17.9152  19.9197  20.4372  24.6348  25.2092  26.3351  28.2676
    28.2703  31.0570  31.0592  35.4572

          k = 0.0000 0.0000 0.2652 (  1476 PWs)   bands (ev):

   -90.9979 -88.5850 -51.3679 -51.3571 -51.3571 -49.0298 -49.0163 -49.0163
    -5.3503  -4.3130   5.7833   6.0841   6.0841   7.4677   7.4677   7.6570
     8.7031   8.7031  10.1537  11.1396  11.5319  11.5319  12.5704  12.5704
    17.0800  17.5293  17.5293  19.8004  24.9107  28.8975  28.8975  29.2748
    32.4518  32.4518  34.1904  35.0758

          k = 1.2990 0.7500 0.0000 (  1471 PWs)   bands (ev):

   -90.9970 -88.5840 -51.3679 -51.3665 -51.3599 -49.0287 -49.0281 -49.0194
    -4.7466  -4.2141   5.6666   6.2105   6.8743   6.9230   7.5745   7.6422
     8.2829   8.8787   9.6364  10.5500  11.2040  11.6623  11.6937  11.8475
    16.8336  17.6874  20.1927  21.6160  25.2759  25.4125  27.3903  27.6676
    29.6431  30.8322  30.8436  35.8990

          k = 0.8660 0.5000 0.0884 (  1475 PWs)   bands (ev):

   -90.9962 -88.5831 -51.3786 -51.3650 -51.3626 -49.0410 -49.0265 -49.0226
    -4.1638  -3.9976   5.6270   6.1790   6.2735   6.9581   7.6970   7.9298
     8.1863   9.1461   9.2601  10.1705  10.5519  10.7300  11.9732  12.1778
    17.6527  17.6621  20.8599  21.0671  24.3814  25.0601  25.9570  27.1802
    28.7511  30.7383  31.5193  36.1805

          k = 1.2990-0.7500-0.2652 (  1471 PWs)   bands (ev):

   -90.9970 -88.5840 -51.3679 -51.3665 -51.3599 -49.0287 -49.0281 -49.0194
    -4.5844  -4.3925   5.8211   6.2119   6.6889   6.8623   7.5738   7.7857
     8.3028   8.9110   9.5508  10.2402  11.1624  11.3057  11.9814  12.3701
    17.1058  17.6141  19.9808  21.0801  25.5078  25.8077  26.6342  27.9710
    30.1130  30.4663  31.8079  35.2200

          k = 0.8660-1.0000-0.1768 (  1470 PWs)   bands (ev):

   -90.9961 -88.5831 -51.3746 -51.3667 -51.3650 -49.0364 -49.0272 -49.0265
    -4.1388  -4.0269   6.1415   6.1471   6.3459   6.5857   7.2418   8.2064
     8.2471   8.9375   9.8013  10.0779  10.4226  10.5826  11.8412  12.0955
    17.5137  17.5249  21.8797  22.0222  24.0953  24.2627  25.9497  26.0318
    29.7576  29.8918  33.3365  33.4186

          k = 0.0000 0.0000-0.5303 (  1490 PWs)   bands (ev):

   -90.9979 -88.5850 -51.3679 -51.3571 -51.3571 -49.0298 -49.0163 -49.0163
    -4.8729  -4.8605   6.1170   6.1170   6.4883   7.3006   7.5020   7.5020
     8.6114   8.6114  10.0157  10.5069  11.3562  11.3562  12.8289  12.8289
    17.4357  17.4357  18.7430  18.8709  26.3913  26.5219  30.4964  30.4964
    30.6204  30.6204  34.5471  34.6205

 ------ SPIN DOWN ----------


          k = 0.0000 0.0000 0.0000 (  1479 PWs)   bands (ev):

   -90.9979 -88.5850 -51.3680 -51.3571 -51.3571 -49.0297 -49.0163 -49.0163
    -5.5351  -4.0554   5.3295   6.0522   6.0522   7.4372   7.4372   7.7858
     8.7901   8.7901  10.2445  11.9517  11.9517  11.9535  12.0706  12.0706
    15.9979  17.6208  17.6208  19.9197  24.6303  28.2689  28.2689  31.9647
    33.0569  33.0584  33.0584  35.4573

          k =-0.4330-0.2500 0.0884 (  1466 PWs)   bands (ev):

   -90.9970 -88.5840 -51.3679 -51.3665 -51.3599 -49.0287 -49.0281 -49.0194
    -4.9314  -4.0025   5.8372   6.1881   6.5470   6.9371   7.5431   7.8722
     8.1226   9.0011   9.9142  10.1905  11.0274  11.1967  12.0621  12.3281
    17.1032  17.5577  19.1997  22.6297  23.7617  25.4986  27.3282  29.4195
    29.4790  30.8253  32.8222  35.2876

          k = 0.8660 0.5000-0.1768 (  1470 PWs)   bands (ev):

   -90.9961 -88.5830 -51.3786 -51.3651 -51.3626 -49.0410 -49.0265 -49.0226
    -4.1961  -3.9672   6.0523   6.1980   6.2105   6.7449   7.6011   7.9432
     8.0529   9.0090   9.5623  10.1498  10.5553  10.8789  11.5281  12.1853
    17.5109  17.5297  21.8177  22.0871  24.0831  24.2717  25.9837  25.9956
    29.7167  29.9327  33.3746  33.3810

          k =-0.4330 0.2500 0.1768 (  1480 PWs)   bands (ev):

   -90.9970 -88.5840 -51.3679 -51.3665 -51.3599 -49.0287 -49.0280 -49.0194
    -4.8667  -4.0835   6.1316   6.1893   6.3629   6.7485   7.5428   7.9752
     8.1211   9.0397   9.8070  10.3651  10.6458  10.9335  12.4366  12.6112
    17.4738  17.4810  18.8050  21.9536  24.1737  25.9877  26.4612  29.8086
    30.5596  30.5762  33.3767  34.5873

          k = 0.8660 1.0000-0.0884 (  1465 PWs)   bands (ev):

   -90.9961 -88.5830 -51.3746 -51.3667 -51.3650 -49.0364 -49.0272 -49.0265
    -4.1855  -3.9842   5.8684   6.3680   6.5502   6.8227   7.1409   7.8778
     8.5256   8.7223   9.8128  10.1511  10.2324  10.8492  11.6494  11.9646
    17.3422  17.6960  21.7112  22.5870  24.3850  24.6316  25.3758  26.1091
    28.9958  29.4394  34.2965  34.7034

          k = 0.4330 0.7500 0.0000 (  1466 PWs)   bands (ev):

   -90.9961 -88.5830 -51.3747 -51.3667 -51.3650 -49.0364 -49.0272 -49.0265
    -4.2180  -3.9557   5.7650   6.5424   6.7089   6.9582   7.1894   7.5561
     8.4824   8.7341   9.9906  10.0787  10.1899  10.9109  11.2713  12.0258
    17.1943  17.8788  21.6149  22.9692  25.0996  25.0998  25.2912  25.4154
    27.7534  29.6551  35.8931  36.3527

          k = 0.8660-0.5000-0.3536 (  1494 PWs)   bands (ev):

   -90.9962 -88.5831 -51.3787 -51.3651 -51.3626 -49.0410 -49.0264 -49.0226
    -4.1044  -4.0553   5.3302   6.1604   6.4563   6.9236   7.7619   7.9184
     8.2848   9.0207   9.3072  10.3007  10.5548  10.5558  12.1717  12.3185
    17.7763  17.9152  19.9197  20.4372  24.6348  25.2092  26.3351  28.2676
    28.2703  31.0570  31.0592  35.4572

          k = 0.0000 0.0000 0.2652 (  1476 PWs)   bands (ev):

   -90.9979 -88.5850 -51.3679 -51.3571 -51.3571 -49.0297 -49.0163 -49.0163
    -5.3503  -4.3130   5.7833   6.0841   6.0841   7.4677   7.4677   7.6570
     8.7031   8.7031  10.1537  11.1396  11.5319  11.5319  12.5704  12.5704
    17.0800  17.5293  17.5293  19.8004  24.9107  28.8975  28.8975  29.2748
    32.4518  32.4518  34.1904  35.0758

          k = 1.2990 0.7500 0.0000 (  1471 PWs)   bands (ev):

   -90.9970 -88.5840 -51.3679 -51.3665 -51.3599 -49.0287 -49.0281 -49.0194
    -4.7466  -4.2141   5.6666   6.2105   6.8743   6.9229   7.5745   7.6422
     8.2829   8.8787   9.6364  10.5500  11.2040  11.6623  11.6937  11.8475
    16.8336  17.6874  20.1927  21.6160  25.2759  25.4125  27.3903  27.6676
    29.6431  30.8322  30.8436  35.8990

          k = 0.8660 0.5000 0.0884 (  1475 PWs)   bands (ev):

   -90.9962 -88.5831 -51.3786 -51.3650 -51.3626 -49.0410 -49.0265 -49.0226
    -4.1638  -3.9976   5.6270   6.1790   6.2735   6.9581   7.6970   7.9298
     8.1863   9.1461   9.2601  10.1705  10.5520  10.7300  11.9732  12.1778
    17.6527  17.6621  20.8599  21.0671  24.3814  25.0601  25.9570  27.1802
    28.7511  30.7383  31.5193  36.1805

          k = 1.2990-0.7500-0.2652 (  1471 PWs)   bands (ev):

   -90.9970 -88.5840 -51.3679 -51.3665 -51.3599 -49.0287 -49.0281 -49.0194
    -4.5844  -4.3925   5.8210   6.2119   6.6889   6.8623   7.5738   7.7857
     8.3028   8.9110   9.5508  10.2402  11.1624  11.3057  11.9814  12.3701
    17.1058  17.6141  19.9808  21.0801  25.5078  25.8077  26.6342  27.9710
    30.1130  30.4663  31.8079  35.2200

          k = 0.8660-1.0000-0.1768 (  1470 PWs)   bands (ev):

   -90.9961 -88.5831 -51.3747 -51.3667 -51.3650 -49.0364 -49.0272 -49.0264
    -4.1388  -4.0269   6.1415   6.1471   6.3459   6.5857   7.2418   8.2064
     8.2471   8.9375   9.8013  10.0779  10.4226  10.5826  11.8412  12.0955
    17.5137  17.5249  21.8797  22.0222  24.0953  24.2627  25.9497  26.0318
    29.7576  29.8918  33.3365  33.4186

          k = 0.0000 0.0000-0.5303 (  1490 PWs)   bands (ev):

   -90.9979 -88.5850 -51.3679 -51.3571 -51.3571 -49.0298 -49.0163 -49.0163
    -4.8729  -4.8605   6.1170   6.1170   6.4882   7.3006   7.5020   7.5020
     8.6114   8.6114  10.0157  10.5069  11.3562  11.3562  12.8289  12.8289
    17.4357  17.4357  18.7430  18.8709  26.3913  26.5219  30.4964  30.4964
    30.6204  30.6204  34.5471  34.6205

     highest occupied, lowest unoccupied level (ev):    12.8289   15.9979

!    total energy              =    -769.55830964 Ry
     estimated scf accuracy    <          4.2E-10 Ry

     The total energy is the sum of the following terms:
     one-electron contribution =    -432.35931634 Ry
     hartree contribution      =     245.52034442 Ry
     xc contribution           =     -86.19868382 Ry
     ewald contribution        =    -477.64553572 Ry
     Hubbard energy            =       0.14991051 Ry
     one-center paw contrib.   =     -19.02502868 Ry

     total magnetization       =    -0.00 Bohr mag/cell
     absolute magnetization    =     3.70 Bohr mag/cell

     convergence has been achieved in  16 iterations

     Forces acting on atoms (cartesian axes, Ry/au):

     atom    1 type  1   force =     0.00000000    0.00000000    0.00000000
     atom    2 type  2   force =     0.00000000    0.00000000    0.00000000
     atom    3 type  3   force =     0.00000000    0.00000000    0.00000154
     atom    4 type  3   force =     0.00000000    0.00000000   -0.00000154

     Total force =     0.000002     Total SCF correction =     0.000002
     SCF correction compared to forces is large: reduce conv_thr to get better values

     Writing all to output data dir ./outdir/NiO_wU.save/
 
     init_run     :      0.48s CPU      0.53s WALL (       1 calls)
     electrons    :     12.65s CPU     13.05s WALL (       1 calls)
     forces       :      0.40s CPU      0.41s WALL (       1 calls)

     Called by init_run:
     wfcinit      :      0.21s CPU      0.22s WALL (       1 calls)
     potinit      :      0.07s CPU      0.09s WALL (       1 calls)
     hinit0       :      0.09s CPU      0.12s WALL (       1 calls)

     Called by electrons:
     c_bands      :      7.93s CPU      8.04s WALL (      16 calls)
     sum_band     :      3.04s CPU      3.08s WALL (      16 calls)
     v_of_rho     :      0.67s CPU      0.70s WALL (      17 calls)
     newd         :      0.71s CPU      0.72s WALL (      17 calls)
     PAW_pot      :      0.30s CPU      0.48s WALL (      17 calls)
     mix_rho      :      0.04s CPU      0.06s WALL (      16 calls)

     Called by c_bands:
     init_us_2    :      0.05s CPU      0.06s WALL (     936 calls)
     init_us_2:cp :      0.05s CPU      0.05s WALL (     936 calls)
     cegterg      :      7.68s CPU      7.79s WALL (     416 calls)

     Called by *egterg:
     cdiaghg      :      0.75s CPU      0.76s WALL (    1324 calls)
     h_psi        :      6.48s CPU      6.57s WALL (    1350 calls)
     s_psi        :      0.10s CPU      0.10s WALL (    1428 calls)
     g_psi        :      0.01s CPU      0.01s WALL (     908 calls)

     Called by h_psi:
     h_psi:calbec :      0.12s CPU      0.12s WALL (    1350 calls)
     vloc_psi     :      6.19s CPU      6.28s WALL (    1350 calls)
     add_vuspsi   :      0.09s CPU      0.09s WALL (    1350 calls)
     vhpsi        :      0.06s CPU      0.06s WALL (    1350 calls)

     General routines
     calbec       :      0.30s CPU      0.31s WALL (    6236 calls)
     fft          :      0.20s CPU      0.22s WALL (     438 calls)
     ffts         :      0.01s CPU      0.01s WALL (      66 calls)
     fftw         :      5.78s CPU      5.86s WALL (   85864 calls)
     interpolate  :      0.03s CPU      0.03s WALL (      34 calls)
     davcio       :      0.00s CPU      0.00s WALL (      26 calls)
 
     Parallel routines

     Hubbard U routines
     new_ns       :      0.03s CPU      0.03s WALL (      16 calls)
     vhpsi        :      0.06s CPU      0.06s WALL (    1350 calls)
     force_hub    :      0.28s CPU      0.28s WALL (       1 calls)
                                        0.00s GPU  (       1 calls)
 
     PWSCF        :     13.62s CPU     14.14s WALL

 
   This run was terminated on:   1:21: 3   3Dec2023            

=------------------------------------------------------------------------------=
   JOB DONE.
=------------------------------------------------------------------------------=
