
     Program BANDS v.7.2 starts on  8Jan2024 at 13:14:23 

     This program is part of the open-source Quantum ESPRESSO suite
     for quantum simulation of materials; please cite
         "P. Giannozzi et al., J. Phys.:Condens. Matter 21 395502 (2009);
         "P. Giannozzi et al., J. Phys.:Condens. Matter 29 465901 (2017);
         "P. Giannozzi et al., J. Chem. Phys. 152 154105 (2020);
          URL http://www.quantum-espresso.org", 
     in publications or presentations arising from this work. More details at
     http://www.quantum-espresso.org/quote

     Parallel version (MPI), running on     4 processors

     MPI processes distributed on     1 nodes
     R & G space division:  proc/nbgrp/npool/nimage =       4
     8196 MiB available memory on the printing compute node when the environment starts
 

     Reading xml data from directory:

     ./Bi2Pd/Bi2Pd.save/
     file Bi.rel-pz-dn-rrkjus_psl.1.0.0.UPF: wavefunction(s)  5D 5D renormalized
     file Pd.rel-pz-n-rrkjus_psl.1.0.0.UPF: wavefunction(s)  4D 4D renormalized

     IMPORTANT: XC functional enforced from input :
     Exchange-correlation= PZ
                           (   1   1   0   0   0   0   0)
     Any further DFT definition will be discarded
     Please, verify this is what you really want

 
     Parallelization info
     --------------------
     sticks:   dense  smooth     PW     G-vecs:    dense   smooth      PW
     Min         888     393    116                27174     8061    1307
     Max         889     394    117                27175     8062    1309
     Sum        3553    1573    467               108697    32245    5233
 
     Using Slab Decomposition
 
     Reading collected, re-writing distributed wavefunctions
     high-symmetry point:  0.0000 0.0000 0.0000   x coordinate   0.0000
     high-symmetry point:  0.0000 0.0000 0.2557   x coordinate   0.2557
     high-symmetry point:  0.5000 0.0000 0.1278   x coordinate   0.7717
     high-symmetry point:  0.5000-0.5000 0.1278   x coordinate   1.2717
     high-symmetry point:  0.5000-0.5000 0.0000   x coordinate   1.3996
     high-symmetry point:  0.0000 0.0000 0.2557   x coordinate   1.3996

     Plottable bands (eV) written to file Bi2Pd.band.gnu
     Bands written to file Bi2Pd.band

 **************************************************************************

                    xk=(   0.00000,   0.00000,   0.00000  )

     double point group D_4h(4/mmm)
     there are 14 classes and  4 irreducible representations
     the character table:

       E     -E    2C4   -2C4   C2    2C2' 2C2'' i     -i    2S4   -2S4   s_h 
                               -C2   -2C2' -2C2'                         -s_h 
G_6+   2.00 -2.00  1.41 -1.41  0.00  0.00  0.00  2.00 -2.00  1.41 -1.41  0.00
G_7+   2.00 -2.00 -1.41  1.41  0.00  0.00  0.00  2.00 -2.00 -1.41  1.41  0.00
G_6-   2.00 -2.00  1.41 -1.41  0.00  0.00  0.00 -2.00  2.00 -1.41  1.41  0.00
G_7-   2.00 -2.00 -1.41  1.41  0.00  0.00  0.00 -2.00  2.00  1.41 -1.41  0.00

        2s_v  2s_d
       -2s_v -2s_d
G_6+   0.00  0.00
G_7+   0.00  0.00
G_6-   0.00  0.00
G_7-   0.00  0.00

     the symmetry operations in each class and the name of the first element:

     E             1
                                                                 
     -E           -1
                                                                 
     2C4           7    8
                                                                 
     -2C4         -7   -8
                                                                 
      C2  -C2      2   -2
                                                                 
      2C2'-2C2'    3   -3    4   -4
                                                                 
     2C2''-2C2'    5   -5   -6    6
                                                                 
     i             9
                                                                 
     -i           -9
                                                                 
     2S4          15   16
                                                                 
     -2S4        -15  -16
                                                                 
      s_h -s_h    10  -10
                                                                 
      2s_v-2s_v   11  -11   12  -12
                                                                 
      2s_d-2s_d   13  -13  -14   14
                                                                 

     Band symmetry, D_4h(4/mmm) double point group:

     e(  1 -  2) =    -11.99520  eV     2   --> G_7+  M_7+     
     e(  3 -  4) =    -11.99290  eV     2   --> G_7-  M_7-     
     e(  5 -  6) =    -11.98812  eV     2   --> G_6+  M_6+     
     e(  7 -  8) =    -11.96123  eV     2   --> G_6-  M_6-     
     e(  9 - 10) =     -9.05062  eV     2   --> G_7+  M_7+     
     e( 11 - 12) =     -9.04889  eV     2   --> G_7-  M_7-     
     e( 13 - 14) =     -9.02423  eV     2   --> G_6+  M_6+     
     e( 15 - 16) =     -8.97429  eV     2   --> G_6-  M_6-     
     e( 17 - 18) =     -8.92021  eV     2   --> G_7+  M_7+     
     e( 19 - 20) =     -8.91356  eV     2   --> G_7-  M_7-     
     e( 21 - 22) =     -0.88783  eV     2   --> G_6+  M_6+     
     e( 23 - 24) =      0.83592  eV     2   --> G_6-  M_6-     
     e( 25 - 26) =      6.20950  eV     2   --> G_6+  M_6+     
     e( 27 - 28) =      8.43783  eV     2   --> G_7+  M_7+     
     e( 29 - 30) =      8.89863  eV     2   --> G_6+  M_6+     
     e( 31 - 32) =      9.31596  eV     2   --> G_7+  M_7+     
     e( 33 - 34) =      9.72795  eV     2   --> G_6+  M_6+     
     e( 35 - 36) =      9.79778  eV     2   --> G_7+  M_7+     
     e( 37 - 38) =     12.42825  eV     2   --> G_6-  M_6-     
     e( 39 - 40) =     14.59634  eV     2   --> G_6+  M_6+     
     e( 41 - 42) =     15.01021  eV     2   --> G_6-  M_6-     
     e( 43 - 44) =     15.50383  eV     2   --> G_7-  M_7-     
     e( 45 - 46) =     16.52426  eV     2   --> G_7+  M_7+     
     e( 47 - 48) =     16.80533  eV     2   --> G_6+  M_6+     
     e( 49 - 50) =     18.58387  eV     2   --> G_6-  M_6-     
     e( 51 - 52) =     19.61868  eV     2   --> G_7-  M_7-     
     e( 53 - 54) =     20.90047  eV     2   --> G_6+  M_6+     
     e( 55 - 56) =     21.32308  eV     2   --> G_7+  M_7+     
     e( 57 - 58) =     23.31223  eV     2   --> G_6-  M_6-     
     e( 59 - 60) =     24.19070  eV     2   --> G_7-  M_7-     
     e( 61 - 62) =     24.51758  eV     2   --> G_6-  M_6-     
     e( 63 - 64) =     24.52931  eV     2   --> G_7-  M_7-     
     e( 65 - 66) =     25.24302  eV     2   --> G_6+  M_6+     
     e( 67 - 68) =     26.16422  eV     2   --> G_6+  M_6+     
     e( 69 - 70) =     26.45000  eV     2   --> G_7+  M_7+     
     e( 71 - 72) =     26.66658  eV     2   --> G_7+  M_7+     
     e( 73 - 74) =     27.92951  eV     2   --> G_6-  M_6-     
     e( 75 - 76) =     28.49037  eV     2   --> G_7-  M_7-     
     e( 77 - 78) =     30.76903  eV     2   --> G_6+  M_6+     
     e( 79 - 80) =     31.40352  eV     2   --> G_7+  M_7+     
     e( 81 - 82) =     32.11669  eV     2   --> G_7+  M_7+     
     e( 83 - 84) =     32.66106  eV     2   --> G_6+  M_6+     
     e( 85 - 86) =     32.70026  eV     2   --> G_6+  M_6+     
     e( 87 - 88) =     32.99267  eV     2   --> G_7-  M_7-     
     e( 89 - 90) =     33.97668  eV     2   --> G_7+  M_7+     
     e( 91 - 92) =     34.52967  eV     2   --> G_6-  M_6-     
     e( 93 - 94) =     34.99728  eV     2   --> G_6-  M_6-     
     e( 95 - 96) =     35.19187  eV     2   --> G_7-  M_7-     
     e( 97 - 98) =     35.54340  eV     2   --> G_6-  M_6-     
     e( 99 -100) =     36.98107  eV     2   --> G_6+  M_6+     
     e(101 -102) =     37.37470  eV     2   --> G_7+  M_7+     
     e(103 -104) =     37.46197  eV     2   --> G_6-  M_6-     
     e(105 -106) =     37.48935  eV     2   --> G_7-  M_7-     
     e(107 -108) =     37.49852  eV     2   --> G_7+  M_7+     
     e(109 -110) =     37.72567  eV     2   --> G_7-  M_7-     
     e(111 -112) =     37.97853  eV     2   --> G_7-  M_7-     
     e(113 -114) =     38.33439  eV     2   --> G_6+  M_6+     
     e(115 -116) =     41.33456  eV     2   --> G_6-  M_6-     
     e(117 -118) =     42.46547  eV     2   --> G_6-  M_6-     
     e(119 -120) =     42.80554  eV     2   --> G_6+  M_6+     
     e(121 -122) =     42.82198  eV     2   --> G_7-  M_7-     
     e(123 -124) =     43.64901  eV     2   --> G_6-  M_6-     
     e(125 -126) =     45.64424  eV     2   --> G_7+  M_7+     
     e(127 -128) =     45.73450  eV     2   --> G_6+  M_6+     
     e(129 -130) =     45.90246  eV     2   --> G_7+  M_7+     
     e(131 -132) =     49.42824  eV     2   --> G_6+  M_6+     
     e(133 -134) =     50.18852  eV     2   --> G_6-  M_6-     
     e(135 -136) =     50.58927  eV     2   --> G_6+  M_6+     
     e(137 -138) =     50.86750  eV     2   --> G_7-  M_7-     
     e(139 -140) =     51.01614  eV     2   --> G_7+  M_7+     
     e(141 -142) =     51.81455  eV     2   --> G_6-  M_6-     
     e(143 -144) =     52.05138  eV     2   --> G_7-  M_7-     
     e(145 -146) =     52.36928  eV     2   --> G_7-  M_7-     
     e(147 -148) =     53.10677  eV     2   --> G_6-  M_6-     
     e(149 -150) =     54.68461  eV     2   --> G_7+  M_7+     
     e(151 -152) =     55.41426  eV     2   --> G_7-  M_7-     
     e(153 -154) =     55.84524  eV     2   --> G_7+  M_7+     
     e(155 -156) =     56.32059  eV     2   --> G_6+  M_6+     
     e(157 -158) =     56.61512  eV     2   --> G_6+  M_6+     
     e(159 -160) =     56.76624  eV     2   --> G_7+  M_7+     

 **************************************************************************

 **************************************************************************

                    xk=(   0.00000,   0.00000,   0.02557  )

     double point group C_4v (4mm) 
     there are  7 classes and  2 irreducible representations
     the character table:

       E     -E    2C4   -2C4   C2    2s_v  2s_d
                               -C2   -2s_v -2s_d
G_6    2.00 -2.00  1.41 -1.41  0.00  0.00  0.00
G_7    2.00 -2.00 -1.41  1.41  0.00  0.00  0.00

     the symmetry operations in each class and the name of the first element:

     E             1
                                                                 
     -E           -1
                                                                 
     2C4           3    4
                                                                 
     -2C4         -3   -4
                                                                 
      C2  -C2      2   -2
                                                                 
      2s_v-2s_v    5   -5    6   -6
                                                                 
      2s_d-2s_d    7   -7    8   -8
                                                                 

     Band symmetry, C_4v (4mm)  double point group:

     e(  1 -  2) =    -11.99499  eV     2   --> G_7   D_7      
     e(  3 -  4) =    -11.99284  eV     2   --> G_7   D_7      
     e(  5 -  6) =    -11.98777  eV     2   --> G_6   D_6      
     e(  7 -  8) =    -11.96131  eV     2   --> G_6   D_6      
     e(  9 - 10) =     -9.05044  eV     2   --> G_7   D_7      
     e( 11 - 12) =     -9.04885  eV     2   --> G_7   D_7      
     e( 13 - 14) =     -9.02387  eV     2   --> G_6   D_6      
     e( 15 - 16) =     -8.97440  eV     2   --> G_6   D_6      
     e( 17 - 18) =     -8.92070  eV     2   --> G_7   D_7      
     e( 19 - 20) =     -8.91279  eV     2   --> G_7   D_7      
     e( 21 - 22) =     -0.88066  eV     2   --> G_6   D_6      
     e( 23 - 24) =      0.81927  eV     2   --> G_6   D_6      
     e( 25 - 26) =      6.23949  eV     2   --> G_6   D_6      
     e( 27 - 28) =      8.43784  eV     2   --> G_7   D_7      
     e( 29 - 30) =      8.89940  eV     2   --> G_6   D_6      
     e( 31 - 32) =      9.31643  eV     2   --> G_7   D_7      
     e( 33 - 34) =      9.72717  eV     2   --> G_6   D_6      
     e( 35 - 36) =      9.79783  eV     2   --> G_7   D_7      
     e( 37 - 38) =     12.39222  eV     2   --> G_6   D_6      
     e( 39 - 40) =     14.58710  eV     2   --> G_6   D_6      
     e( 41 - 42) =     14.94148  eV     2   --> G_6   D_6      
     e( 43 - 44) =     15.46818  eV     2   --> G_7   D_7      
     e( 45 - 46) =     16.57236  eV     2   --> G_7   D_7      
     e( 47 - 48) =     16.91316  eV     2   --> G_6   D_6      
     e( 49 - 50) =     18.58195  eV     2   --> G_6   D_6      
     e( 51 - 52) =     19.62272  eV     2   --> G_7   D_7      
     e( 53 - 54) =     20.94994  eV     2   --> G_6   D_6      
     e( 55 - 56) =     21.31798  eV     2   --> G_7   D_7      
     e( 57 - 58) =     23.23606  eV     2   --> G_6   D_6      
     e( 59 - 60) =     24.16768  eV     2   --> G_7   D_7      
     e( 61 - 62) =     24.34938  eV     2   --> G_6   D_6      
     e( 63 - 64) =     24.43508  eV     2   --> G_7   D_7      
     e( 65 - 66) =     25.37445  eV     2   --> G_6   D_6      
     e( 67 - 68) =     26.30034  eV     2   --> G_6   D_6      
     e( 69 - 70) =     26.54161  eV     2   --> G_7   D_7      
     e( 71 - 72) =     26.71681  eV     2   --> G_7   D_7      
     e( 73 - 74) =     27.94441  eV     2   --> G_6   D_6      
     e( 75 - 76) =     28.50961  eV     2   --> G_7   D_7      
     e( 77 - 78) =     30.72751  eV     2   --> G_6   D_6      
     e( 79 - 80) =     31.36381  eV     2   --> G_7   D_7      
     e( 81 - 82) =     32.11267  eV     2   --> G_7   D_7      
     e( 83 - 84) =     32.45672  eV     2   --> G_6   D_6      
     e( 85 - 86) =     32.67064  eV     2   --> G_6   D_6      
     e( 87 - 88) =     33.00211  eV     2   --> G_7   D_7      
     e( 89 - 90) =     33.97274  eV     2   --> G_7   D_7      
     e( 91 - 92) =     34.52454  eV     2   --> G_6   D_6      
     e( 93 - 94) =     35.04532  eV     2   --> G_6   D_6      
     e( 95 - 96) =     35.24678  eV     2   --> G_7   D_7      
     e( 97 - 98) =     35.74864  eV     2   --> G_6   D_6      
     e( 99 -100) =     36.63694  eV     2   --> G_6   D_6      
     e(101 -102) =     36.81918  eV     2   --> G_7   D_7      
     e(103 -104) =     37.13455  eV     2   --> G_7   D_7      
     e(105 -106) =     37.52708  eV     2   --> G_7   D_7      
     e(107 -108) =     37.80768  eV     2   --> G_6   D_6      
     e(109 -110) =     38.25419  eV     2   --> G_7   D_7      
     e(111 -112) =     38.34214  eV     2   --> G_7   D_7      
     e(113 -114) =     38.36484  eV     2   --> G_6   D_6      
     e(115 -116) =     41.02624  eV     2   --> G_6   D_6      
     e(117 -118) =     42.37852  eV     2   --> G_6   D_6      
     e(119 -120) =     42.74574  eV     2   --> G_7   D_7      
     e(121 -122) =     43.13659  eV     2   --> G_6   D_6      
     e(123 -124) =     43.62808  eV     2   --> G_6   D_6      
     e(125 -126) =     45.68280  eV     2   --> G_7   D_7      
     e(127 -128) =     45.78114  eV     2   --> G_6   D_6      
     e(129 -130) =     45.94263  eV     2   --> G_7   D_7      
     e(131 -132) =     49.49631  eV     2   --> G_6   D_6      
     e(133 -134) =     50.20694  eV     2   --> G_6   D_6      
     e(135 -136) =     50.52830  eV     2   --> G_6   D_6      
     e(137 -138) =     50.86202  eV     2   --> G_7   D_7      
     e(139 -140) =     50.96297  eV     2   --> G_7   D_7      
     e(141 -142) =     51.83590  eV     2   --> G_6   D_6      
     e(143 -144) =     52.09881  eV     2   --> G_7   D_7      
     e(145 -146) =     52.23390  eV     2   --> G_7   D_7      
     e(147 -148) =     52.99185  eV     2   --> G_6   D_6      
     e(149 -150) =     54.26294  eV     2   --> G_7   D_7      
     e(151 -152) =     55.83294  eV     2   --> G_7   D_7      
     e(153 -154) =     55.86153  eV     2   --> G_7   D_7      
     e(155 -156) =     56.29271  eV     2   --> G_6   D_6      
     e(157 -158) =     56.57308  eV     2   --> G_6   D_6      
     e(159 -160) =     56.75327  eV     2   --> G_7   D_7      

 **************************************************************************

 **************************************************************************

                    xk=(   0.00000,   0.00000,   0.05113  )

     Band symmetry, C_4v (4mm)  double point group:

     e(  1 -  2) =    -11.99500  eV     2   --> G_7   D_7      
     e(  3 -  4) =    -11.99284  eV     2   --> G_7   D_7      
     e(  5 -  6) =    -11.98744  eV     2   --> G_6   D_6      
     e(  7 -  8) =    -11.96178  eV     2   --> G_6   D_6      
     e(  9 - 10) =     -9.05048  eV     2   --> G_7   D_7      
     e( 11 - 12) =     -9.04890  eV     2   --> G_7   D_7      
     e( 13 - 14) =     -9.02345  eV     2   --> G_6   D_6      
     e( 15 - 16) =     -8.97488  eV     2   --> G_6   D_6      
     e( 17 - 18) =     -8.92224  eV     2   --> G_7   D_7      
     e( 19 - 20) =     -8.91116  eV     2   --> G_7   D_7      
     e( 21 - 22) =     -0.85924  eV     2   --> G_6   D_6      
     e( 23 - 24) =      0.77072  eV     2   --> G_6   D_6      
     e( 25 - 26) =      6.32768  eV     2   --> G_6   D_6      
     e( 27 - 28) =      8.43786  eV     2   --> G_7   D_7      
     e( 29 - 30) =      8.90169  eV     2   --> G_6   D_6      
     e( 31 - 32) =      9.31781  eV     2   --> G_7   D_7      
     e( 33 - 34) =      9.72465  eV     2   --> G_6   D_6      
     e( 35 - 36) =      9.79796  eV     2   --> G_7   D_7      
     e( 37 - 38) =     12.28635  eV     2   --> G_6   D_6      
     e( 39 - 40) =     14.48618  eV     2   --> G_6   D_6      
     e( 41 - 42) =     14.86483  eV     2   --> G_6   D_6      
     e( 43 - 44) =     15.37850  eV     2   --> G_7   D_7      
     e( 45 - 46) =     16.69886  eV     2   --> G_7   D_7      
     e( 47 - 48) =     17.17714  eV     2   --> G_6   D_6      
     e( 49 - 50) =     18.57780  eV     2   --> G_6   D_6      
     e( 51 - 52) =     19.63458  eV     2   --> G_7   D_7      
     e( 53 - 54) =     21.09628  eV     2   --> G_6   D_6      
     e( 55 - 56) =     21.30285  eV     2   --> G_7   D_7      
     e( 57 - 58) =     23.04042  eV     2   --> G_6   D_6      
     e( 59 - 60) =     24.00257  eV     2   --> G_6   D_6      
     e( 61 - 62) =     24.09921  eV     2   --> G_7   D_7      
     e( 63 - 64) =     24.20385  eV     2   --> G_7   D_7      
     e( 65 - 66) =     25.65160  eV     2   --> G_6   D_6      
     e( 67 - 68) =     26.63272  eV     2   --> G_6   D_6      
     e( 69 - 70) =     26.75210  eV     2   --> G_7   D_7      
     e( 71 - 72) =     26.87729  eV     2   --> G_7   D_7      
     e( 73 - 74) =     27.99145  eV     2   --> G_6   D_6      
     e( 75 - 76) =     28.56897  eV     2   --> G_7   D_7      
     e( 77 - 78) =     30.60204  eV     2   --> G_6   D_6      
     e( 79 - 80) =     31.25200  eV     2   --> G_7   D_7      
     e( 81 - 82) =     31.91266  eV     2   --> G_6   D_6      
     e( 83 - 84) =     32.10131  eV     2   --> G_7   D_7      
     e( 85 - 86) =     32.66583  eV     2   --> G_6   D_6      
     e( 87 - 88) =     33.02942  eV     2   --> G_7   D_7      
     e( 89 - 90) =     33.96078  eV     2   --> G_7   D_7      
     e( 91 - 92) =     34.50542  eV     2   --> G_6   D_6      
     e( 93 - 94) =     35.17927  eV     2   --> G_6   D_6      
     e( 95 - 96) =     35.40232  eV     2   --> G_7   D_7      
     e( 97 - 98) =     36.06132  eV     2   --> G_6   D_6      
     e( 99 -100) =     36.15986  eV     2   --> G_7   D_7      
     e(101 -102) =     36.29379  eV     2   --> G_6   D_6      
     e(103 -104) =     36.62295  eV     2   --> G_7   D_7      
     e(105 -106) =     37.50631  eV     2   --> G_7   D_7      
     e(107 -108) =     38.28450  eV     2   --> G_6   D_6      
     e(109 -110) =     38.47121  eV     2   --> G_6   D_6      
     e(111 -112) =     38.79066  eV     2   --> G_7   D_7      
     e(113 -114) =     39.03045  eV     2   --> G_7   D_7      
     e(115 -116) =     40.47424  eV     2   --> G_6   D_6      
     e(117 -118) =     42.17618  eV     2   --> G_6   D_6      
     e(119 -120) =     42.53560  eV     2   --> G_7   D_7      
     e(121 -122) =     43.33675  eV     2   --> G_6   D_6      
     e(123 -124) =     43.97452  eV     2   --> G_6   D_6      
     e(125 -126) =     45.79318  eV     2   --> G_7   D_7      
     e(127 -128) =     45.90071  eV     2   --> G_6   D_6      
     e(129 -130) =     46.04777  eV     2   --> G_7   D_7      
     e(131 -132) =     49.67660  eV     2   --> G_6   D_6      
     e(133 -134) =     50.22615  eV     2   --> G_6   D_6      
     e(135 -136) =     50.41172  eV     2   --> G_6   D_6      
     e(137 -138) =     50.71138  eV     2   --> G_7   D_7      
     e(139 -140) =     50.98414  eV     2   --> G_7   D_7      
     e(141 -142) =     51.85565  eV     2   --> G_7   D_7      
     e(143 -144) =     51.87843  eV     2   --> G_6   D_6      
     e(145 -146) =     52.19884  eV     2   --> G_7   D_7      
     e(147 -148) =     52.68604  eV     2   --> G_6   D_6      
     e(149 -150) =     53.61276  eV     2   --> G_7   D_7      
     e(151 -152) =     55.89642  eV     2   --> G_7   D_7      
     e(153 -154) =     56.17042  eV     2   --> G_6   D_6      
     e(155 -158) =     56.47810  eV     4   --> G_6   D_6      
     e(155 -158) =     56.47810  eV     4   --> G_7   D_7      
     e(159 -160) =     56.71299  eV     2   --> G_7   D_7      

 **************************************************************************

 **************************************************************************

                    xk=(   0.00000,   0.00000,   0.07670  )

     Band symmetry, C_4v (4mm)  double point group:

     e(  1 -  2) =    -11.99501  eV     2   --> G_7   D_7      
     e(  3 -  4) =    -11.99280  eV     2   --> G_7   D_7      
     e(  5 -  6) =    -11.98668  eV     2   --> G_6   D_6      
     e(  7 -  8) =    -11.96231  eV     2   --> G_6   D_6      
     e(  9 - 10) =     -9.05054  eV     2   --> G_7   D_7      
     e( 11 - 12) =     -9.04893  eV     2   --> G_7   D_7      
     e( 13 - 14) =     -9.02254  eV     2   --> G_6   D_6      
     e( 15 - 16) =     -8.97539  eV     2   --> G_6   D_6      
     e( 17 - 18) =     -8.92393  eV     2   --> G_7   D_7      
     e( 19 - 20) =     -8.90923  eV     2   --> G_7   D_7      
     e( 21 - 22) =     -0.82374  eV     2   --> G_6   D_6      
     e( 23 - 24) =      0.69413  eV     2   --> G_6   D_6      
     e( 25 - 26) =      6.46889  eV     2   --> G_6   D_6      
     e( 27 - 28) =      8.43790  eV     2   --> G_7   D_7      
     e( 29 - 30) =      8.90543  eV     2   --> G_6   D_6      
     e( 31 - 32) =      9.31995  eV     2   --> G_7   D_7      
     e( 33 - 34) =      9.71984  eV     2   --> G_6   D_6      
     e( 35 - 36) =      9.79818  eV     2   --> G_7   D_7      
     e( 37 - 38) =     12.11654  eV     2   --> G_6   D_6      
     e( 39 - 40) =     14.25113  eV     2   --> G_6   D_6      
     e( 41 - 42) =     14.90613  eV     2   --> G_6   D_6      
     e( 43 - 44) =     15.26460  eV     2   --> G_7   D_7      
     e( 45 - 46) =     16.87218  eV     2   --> G_7   D_7      
     e( 47 - 48) =     17.50508  eV     2   --> G_6   D_6      
     e( 49 - 50) =     18.57650  eV     2   --> G_6   D_6      
     e( 51 - 52) =     19.65357  eV     2   --> G_7   D_7      
     e( 53 - 54) =     21.27849  eV     2   --> G_7   D_7      
     e( 55 - 56) =     21.33134  eV     2   --> G_6   D_6      
     e( 57 - 58) =     22.78647  eV     2   --> G_6   D_6      
     e( 59 - 60) =     23.61127  eV     2   --> G_6   D_6      
     e( 61 - 62) =     23.87575  eV     2   --> G_7   D_7      
     e( 63 - 64) =     24.03345  eV     2   --> G_7   D_7      
     e( 65 - 66) =     25.98689  eV     2   --> G_6   D_6      
     e( 67 - 68) =     26.98013  eV     2   --> G_7   D_7      
     e( 69 - 70) =     27.04540  eV     2   --> G_6   D_6      
     e( 71 - 72) =     27.15359  eV     2   --> G_7   D_7      
     e( 73 - 74) =     28.08025  eV     2   --> G_6   D_6      
     e( 75 - 76) =     28.67355  eV     2   --> G_7   D_7      
     e( 77 - 78) =     30.37556  eV     2   --> G_6   D_6      
     e( 79 - 80) =     31.08584  eV     2   --> G_7   D_7      
     e( 81 - 82) =     31.27404  eV     2   --> G_6   D_6      
     e( 83 - 84) =     32.08457  eV     2   --> G_7   D_7      
     e( 85 - 86) =     32.66154  eV     2   --> G_6   D_6      
     e( 87 - 88) =     33.07189  eV     2   --> G_7   D_7      
     e( 89 - 90) =     33.94039  eV     2   --> G_7   D_7      
     e( 91 - 92) =     34.46168  eV     2   --> G_6   D_6      
     e( 93 - 94) =     35.32385  eV     2   --> G_6   D_6      
     e( 95 - 96) =     35.52421  eV     2   --> G_7   D_7      
     e( 97 - 98) =     35.62049  eV     2   --> G_7   D_7      
     e( 99 -100) =     35.68983  eV     2   --> G_6   D_6      
     e(101 -102) =     36.12398  eV     2   --> G_7   D_7      
     e(103 -104) =     36.73349  eV     2   --> G_6   D_6      
     e(105 -106) =     37.47064  eV     2   --> G_7   D_7      
     e(107 -108) =     38.52041  eV     2   --> G_6   D_6      
     e(109 -110) =     38.81738  eV     2   --> G_6   D_6      
     e(111 -112) =     39.28032  eV     2   --> G_7   D_7      
     e(113 -114) =     39.78681  eV     2   --> G_7   D_7      
     e(115 -116) =     40.02328  eV     2   --> G_6   D_6      
     e(117 -118) =     41.89225  eV     2   --> G_6   D_6      
     e(119 -120) =     42.23358  eV     2   --> G_7   D_7      
     e(121 -122) =     43.14259  eV     2   --> G_6   D_6      
     e(123 -124) =     44.73362  eV     2   --> G_6   D_6      
     e(125 -126) =     45.96647  eV     2   --> G_7   D_7      
     e(127 -128) =     46.04758  eV     2   --> G_6   D_6      
     e(129 -130) =     46.18025  eV     2   --> G_7   D_7      
     e(131 -132) =     49.88015  eV     2   --> G_6   D_6      
     e(133 -134) =     50.07512  eV     2   --> G_6   D_6      
     e(135 -136) =     50.48003  eV     2   --> G_7   D_7      
     e(137 -138) =     50.48181  eV     2   --> G_6   D_6      
     e(139 -140) =     51.08649  eV     2   --> G_7   D_7      
     e(141 -142) =     51.29629  eV     2   --> G_7   D_7      
     e(143 -144) =     51.90463  eV     2   --> G_6   D_6      
     e(145 -146) =     52.29195  eV     2   --> G_7   D_7      
     e(147 -148) =     52.30067  eV     2   --> G_6   D_6      
     e(149 -150) =     52.94381  eV     2   --> G_7   D_7      
     e(151 -152) =     55.90074  eV     2   --> G_6   D_6      
     e(153 -154) =     55.93943  eV     2   --> G_7   D_7      
     e(155 -156) =     56.38532  eV     2   --> G_6   D_6      
     e(157 -158) =     56.63953  eV     2   --> G_7   D_7      
     e(159 -160) =     56.75717  eV     2   --> G_6   D_6      

 **************************************************************************

 **************************************************************************

                    xk=(   0.00000,   0.00000,   0.10226  )

     Band symmetry, C_4v (4mm)  double point group:

     e(  1 -  2) =    -11.99519  eV     2   --> G_7   D_7      
     e(  3 -  4) =    -11.99286  eV     2   --> G_7   D_7      
     e(  5 -  6) =    -11.98567  eV     2   --> G_6   D_6      
     e(  7 -  8) =    -11.96349  eV     2   --> G_6   D_6      
     e(  9 - 10) =     -9.05078  eV     2   --> G_7   D_7      
     e( 11 - 12) =     -9.04910  eV     2   --> G_7   D_7      
     e( 13 - 14) =     -9.02136  eV     2   --> G_6   D_6      
     e( 15 - 16) =     -8.97652  eV     2   --> G_6   D_6      
     e( 17 - 18) =     -8.92578  eV     2   --> G_7   D_7      
     e( 19 - 20) =     -8.90736  eV     2   --> G_7   D_7      
     e( 21 - 22) =     -0.77452  eV     2   --> G_6   D_6      
     e( 23 - 24) =      0.59496  eV     2   --> G_6   D_6      
     e( 25 - 26) =      6.65515  eV     2   --> G_6   D_6      
     e( 27 - 28) =      8.43795  eV     2   --> G_7   D_7      
     e( 29 - 30) =      8.91058  eV     2   --> G_6   D_6      
     e( 31 - 32) =      9.32266  eV     2   --> G_7   D_7      
     e( 33 - 34) =      9.71165  eV     2   --> G_6   D_6      
     e( 35 - 36) =      9.79844  eV     2   --> G_7   D_7      
     e( 37 - 38) =     11.89185  eV     2   --> G_6   D_6      
     e( 39 - 40) =     13.99028  eV     2   --> G_6   D_6      
     e( 41 - 42) =     15.00186  eV     2   --> G_6   D_6      
     e( 43 - 44) =     15.14724  eV     2   --> G_7   D_7      
     e( 45 - 46) =     17.06841  eV     2   --> G_7   D_7      
     e( 47 - 48) =     17.83644  eV     2   --> G_6   D_6      
     e( 49 - 50) =     18.58915  eV     2   --> G_6   D_6      
     e( 51 - 52) =     19.67848  eV     2   --> G_7   D_7      
     e( 53 - 54) =     21.24628  eV     2   --> G_7   D_7      
     e( 55 - 56) =     21.62586  eV     2   --> G_6   D_6      
     e( 57 - 58) =     22.53629  eV     2   --> G_6   D_6      
     e( 59 - 60) =     23.22349  eV     2   --> G_6   D_6      
     e( 61 - 62) =     23.55096  eV     2   --> G_7   D_7      
     e( 63 - 64) =     23.93328  eV     2   --> G_7   D_7      
     e( 65 - 66) =     26.34454  eV     2   --> G_6   D_6      
     e( 67 - 68) =     27.22770  eV     2   --> G_7   D_7      
     e( 69 - 70) =     27.45264  eV     2   --> G_6   D_6      
     e( 71 - 72) =     27.46765  eV     2   --> G_7   D_7      
     e( 73 - 74) =     28.23776  eV     2   --> G_6   D_6      
     e( 75 - 76) =     28.83138  eV     2   --> G_7   D_7      
     e( 77 - 78) =     29.96966  eV     2   --> G_6   D_6      
     e( 79 - 80) =     30.72708  eV     2   --> G_6   D_6      
     e( 81 - 82) =     30.88581  eV     2   --> G_7   D_7      
     e( 83 - 84) =     32.06489  eV     2   --> G_7   D_7      
     e( 85 - 86) =     32.66003  eV     2   --> G_6   D_6      
     e( 87 - 88) =     33.12559  eV     2   --> G_7   D_7      
     e( 89 - 90) =     33.91047  eV     2   --> G_7   D_7      
     e( 91 - 92) =     34.36978  eV     2   --> G_6   D_6      
     e( 93 - 94) =     34.92392  eV     2   --> G_7   D_7      
     e( 95 - 96) =     35.06009  eV     2   --> G_6   D_6      
     e( 97 - 98) =     35.49972  eV     2   --> G_7   D_7      
     e( 99 -100) =     35.77717  eV     2   --> G_6   D_6      
     e(101 -102) =     36.03620  eV     2   --> G_7   D_7      
     e(103 -104) =     37.10183  eV     2   --> G_6   D_6      
     e(105 -106) =     37.42581  eV     2   --> G_7   D_7      
     e(107 -108) =     38.46354  eV     2   --> G_6   D_6      
     e(109 -110) =     39.24072  eV     2   --> G_6   D_6      
     e(111 -112) =     39.72774  eV     2   --> G_7   D_7      
     e(113 -114) =     39.97470  eV     2   --> G_6   D_6      
     e(115 -116) =     40.56614  eV     2   --> G_7   D_7      
     e(117 -118) =     41.57388  eV     2   --> G_6   D_6      
     e(119 -120) =     41.88852  eV     2   --> G_7   D_7      
     e(121 -122) =     42.88459  eV     2   --> G_6   D_6      
     e(123 -124) =     45.54468  eV     2   --> G_6   D_6      
     e(125 -126) =     46.17427  eV     2   --> G_6   D_6      
     e(127 -128) =     46.19018  eV     2   --> G_7   D_7      
     e(129 -130) =     46.30446  eV     2   --> G_7   D_7      
     e(131 -132) =     49.78735  eV     2   --> G_6   D_6      
     e(133 -134) =     50.01600  eV     2   --> G_6   D_6      
     e(135 -136) =     50.25228  eV     2   --> G_7   D_7      
     e(137 -138) =     50.61269  eV     2   --> G_7   D_7      
     e(139 -140) =     50.68364  eV     2   --> G_6   D_6      
     e(141 -142) =     51.23570  eV     2   --> G_7   D_7      
     e(143 -144) =     51.89574  eV     2   --> G_6   D_6      
     e(145 -146) =     52.03176  eV     2   --> G_6   D_6      
     e(147 -148) =     52.27461  eV     2   --> G_7   D_7      
     e(149 -150) =     52.35590  eV     2   --> G_7   D_7      
     e(151 -152) =     55.50215  eV     2   --> G_6   D_6      
     e(153 -154) =     55.98013  eV     2   --> G_7   D_7      
     e(155 -156) =     56.26121  eV     2   --> G_6   D_6      
     e(157 -158) =     56.51961  eV     2   --> G_7   D_7      
     e(159 -160) =     56.65718  eV     2   --> G_6   D_6      

 **************************************************************************

 **************************************************************************

                    xk=(   0.00000,   0.00000,   0.12783  )

     Band symmetry, C_4v (4mm)  double point group:

     e(  1 -  2) =    -11.99528  eV     2   --> G_7   D_7      
     e(  3 -  4) =    -11.99284  eV     2   --> G_7   D_7      
     e(  5 -  6) =    -11.98446  eV     2   --> G_6   D_6      
     e(  7 -  8) =    -11.96490  eV     2   --> G_6   D_6      
     e(  9 - 10) =     -9.05094  eV     2   --> G_7   D_7      
     e( 11 - 12) =     -9.04918  eV     2   --> G_7   D_7      
     e( 13 - 14) =     -9.02003  eV     2   --> G_6   D_6      
     e( 15 - 16) =     -8.97782  eV     2   --> G_6   D_6      
     e( 17 - 18) =     -8.92739  eV     2   --> G_7   D_7      
     e( 19 - 20) =     -8.90569  eV     2   --> G_7   D_7      
     e( 21 - 22) =     -0.71213  eV     2   --> G_6   D_6      
     e( 23 - 24) =      0.47938  eV     2   --> G_6   D_6      
     e( 25 - 26) =      6.87608  eV     2   --> G_6   D_6      
     e( 27 - 28) =      8.43800  eV     2   --> G_7   D_7      
     e( 29 - 30) =      8.91719  eV     2   --> G_6   D_6      
     e( 31 - 32) =      9.32568  eV     2   --> G_7   D_7      
     e( 33 - 34) =      9.69821  eV     2   --> G_6   D_6      
     e( 35 - 36) =      9.79875  eV     2   --> G_7   D_7      
     e( 37 - 38) =     11.62629  eV     2   --> G_6   D_6      
     e( 39 - 40) =     13.75711  eV     2   --> G_6   D_6      
     e( 41 - 42) =     15.03788  eV     2   --> G_7   D_7      
     e( 43 - 44) =     15.11390  eV     2   --> G_6   D_6      
     e( 45 - 46) =     17.27116  eV     2   --> G_7   D_7      
     e( 47 - 48) =     18.12046  eV     2   --> G_6   D_6      
     e( 49 - 50) =     18.64479  eV     2   --> G_6   D_6      
     e( 51 - 52) =     19.70754  eV     2   --> G_7   D_7      
     e( 53 - 54) =     21.20841  eV     2   --> G_7   D_7      
     e( 55 - 56) =     21.82682  eV     2   --> G_6   D_6      
     e( 57 - 58) =     22.44795  eV     2   --> G_6   D_6      
     e( 59 - 60) =     22.87009  eV     2   --> G_6   D_6      
     e( 61 - 62) =     23.22949  eV     2   --> G_7   D_7      
     e( 63 - 64) =     23.83824  eV     2   --> G_7   D_7      
     e( 65 - 66) =     26.69458  eV     2   --> G_6   D_6      
     e( 67 - 68) =     27.49725  eV     2   --> G_7   D_7      
     e( 69 - 70) =     27.76190  eV     2   --> G_7   D_7      
     e( 71 - 72) =     27.77633  eV     2   --> G_6   D_6      
     e( 73 - 74) =     28.51013  eV     2   --> G_6   D_6      
     e( 75 - 76) =     29.04898  eV     2   --> G_7   D_7      
     e( 77 - 78) =     29.34659  eV     2   --> G_6   D_6      
     e( 79 - 80) =     30.36985  eV     2   --> G_6   D_6      
     e( 81 - 82) =     30.67047  eV     2   --> G_7   D_7      
     e( 83 - 84) =     32.04462  eV     2   --> G_7   D_7      
     e( 85 - 86) =     32.66502  eV     2   --> G_6   D_6      
     e( 87 - 88) =     33.18509  eV     2   --> G_7   D_7      
     e( 89 - 90) =     33.86702  eV     2   --> G_7   D_7      
     e( 91 - 92) =     34.18133  eV     2   --> G_6   D_6      
     e( 93 - 94) =     34.37226  eV     2   --> G_7   D_7      
     e( 95 - 96) =     34.69191  eV     2   --> G_6   D_6      
     e( 97 - 98) =     35.01883  eV     2   --> G_7   D_7      
     e( 99 -100) =     36.09712  eV     2   --> G_6   D_6      
     e(101 -102) =     36.37354  eV     2   --> G_7   D_7      
     e(103 -104) =     37.27962  eV     2   --> G_6   D_6      
     e(105 -106) =     37.37689  eV     2   --> G_7   D_7      
     e(107 -108) =     38.19863  eV     2   --> G_6   D_6      
     e(109 -110) =     39.61864  eV     2   --> G_6   D_6      
     e(111 -112) =     40.08181  eV     2   --> G_7   D_7      
     e(113 -114) =     40.36431  eV     2   --> G_6   D_6      
     e(115 -116) =     41.29827  eV     2   --> G_6   D_6      
     e(117 -118) =     41.36262  eV     2   --> G_7   D_7      
     e(119 -120) =     41.56871  eV     2   --> G_7   D_7      
     e(121 -122) =     42.61288  eV     2   --> G_6   D_6      
     e(123 -124) =     46.24400  eV     2   --> G_6   D_6      
     e(125 -126) =     46.33727  eV     2   --> G_7   D_7      
     e(127 -128) =     46.34999  eV     2   --> G_6   D_6      
     e(129 -130) =     46.51064  eV     2   --> G_7   D_7      
     e(131 -132) =     49.49928  eV     2   --> G_6   D_6      
     e(133 -134) =     49.85127  eV     2   --> G_7   D_7      
     e(135 -136) =     49.88021  eV     2   --> G_6   D_6      
     e(137 -138) =     50.06401  eV     2   --> G_7   D_7      
     e(139 -140) =     50.91050  eV     2   --> G_6   D_6      
     e(141 -142) =     51.41457  eV     2   --> G_7   D_7      
     e(143 -144) =     51.63340  eV     2   --> G_7   D_7      
     e(145 -146) =     51.92956  eV     2   --> G_6   D_6      
     e(147 -148) =     52.04315  eV     2   --> G_6   D_6      
     e(149 -150) =     52.37181  eV     2   --> G_7   D_7      
     e(151 -152) =     54.99754  eV     2   --> G_6   D_6      
     e(153 -154) =     56.01557  eV     2   --> G_7   D_7      
     e(155 -156) =     56.05172  eV     2   --> G_6   D_6      
     e(157 -158) =     56.33447  eV     2   --> G_7   D_7      
     e(159 -160) =     56.53592  eV     2   --> G_6   D_6      

 **************************************************************************

 **************************************************************************

                    xk=(   0.00000,   0.00000,   0.15339  )

     Band symmetry, C_4v (4mm)  double point group:

     e(  1 -  2) =    -11.99522  eV     2   --> G_7   D_7      
     e(  3 -  4) =    -11.99279  eV     2   --> G_7   D_7      
     e(  5 -  6) =    -11.98301  eV     2   --> G_6   D_6      
     e(  7 -  8) =    -11.96622  eV     2   --> G_6   D_6      
     e(  9 - 10) =     -9.05103  eV     2   --> G_7   D_7      
     e( 11 - 12) =     -9.04923  eV     2   --> G_7   D_7      
     e( 13 - 14) =     -9.01847  eV     2   --> G_6   D_6      
     e( 15 - 16) =     -8.97900  eV     2   --> G_6   D_6      
     e( 17 - 18) =     -8.92862  eV     2   --> G_7   D_7      
     e( 19 - 20) =     -8.90413  eV     2   --> G_7   D_7      
     e( 21 - 22) =     -0.63745  eV     2   --> G_6   D_6      
     e( 23 - 24) =      0.35361  eV     2   --> G_6   D_6      
     e( 25 - 26) =      7.11841  eV     2   --> G_6   D_6      
     e( 27 - 28) =      8.43806  eV     2   --> G_7   D_7      
     e( 29 - 30) =      8.92553  eV     2   --> G_6   D_6      
     e( 31 - 32) =      9.32870  eV     2   --> G_7   D_7      
     e( 33 - 34) =      9.67650  eV     2   --> G_6   D_6      
     e( 35 - 36) =      9.79906  eV     2   --> G_7   D_7      
     e( 37 - 38) =     11.34101  eV     2   --> G_6   D_6      
     e( 39 - 40) =     13.56765  eV     2   --> G_6   D_6      
     e( 41 - 42) =     14.94291  eV     2   --> G_7   D_7      
     e( 43 - 44) =     15.22523  eV     2   --> G_6   D_6      
     e( 45 - 46) =     17.46695  eV     2   --> G_7   D_7      
     e( 47 - 48) =     18.29238  eV     2   --> G_6   D_6      
     e( 49 - 50) =     18.79932  eV     2   --> G_6   D_6      
     e( 51 - 52) =     19.73834  eV     2   --> G_7   D_7      
     e( 53 - 54) =     21.16792  eV     2   --> G_7   D_7      
     e( 55 - 56) =     21.68952  eV     2   --> G_6   D_6      
     e( 57 - 58) =     22.49926  eV     2   --> G_6   D_6      
     e( 59 - 60) =     22.83488  eV     2   --> G_6   D_6      
     e( 61 - 62) =     22.93299  eV     2   --> G_7   D_7      
     e( 63 - 64) =     23.75381  eV     2   --> G_7   D_7      
     e( 65 - 66) =     26.99277  eV     2   --> G_6   D_6      
     e( 67 - 68) =     27.77421  eV     2   --> G_7   D_7      
     e( 69 - 70) =     27.99848  eV     2   --> G_6   D_6      
     e( 71 - 72) =     28.01302  eV     2   --> G_7   D_7      
     e( 73 - 74) =     28.64001  eV     2   --> G_6   D_6      
     e( 75 - 76) =     28.90399  eV     2   --> G_6   D_6      
     e( 77 - 78) =     29.32090  eV     2   --> G_7   D_7      
     e( 79 - 80) =     30.11094  eV     2   --> G_6   D_6      
     e( 81 - 82) =     30.45600  eV     2   --> G_7   D_7      
     e( 83 - 84) =     32.02575  eV     2   --> G_7   D_7      
     e( 85 - 86) =     32.68150  eV     2   --> G_6   D_6      
     e( 87 - 88) =     33.23867  eV     2   --> G_7   D_7      
     e( 89 - 90) =     33.76559  eV     2   --> G_7   D_7      
     e( 91 - 92) =     33.87142  eV     2   --> G_6   D_6      
     e( 93 - 94) =     33.93012  eV     2   --> G_7   D_7      
     e( 95 - 96) =     34.41293  eV     2   --> G_6   D_6      
     e( 97 - 98) =     34.54424  eV     2   --> G_7   D_7      
     e( 99 -100) =     36.46723  eV     2   --> G_6   D_6      
     e(101 -102) =     36.76881  eV     2   --> G_7   D_7      
     e(103 -104) =     37.22004  eV     2   --> G_6   D_6      
     e(105 -106) =     37.32948  eV     2   --> G_7   D_7      
     e(107 -108) =     38.02762  eV     2   --> G_6   D_6      
     e(109 -110) =     39.78486  eV     2   --> G_6   D_6      
     e(111 -112) =     40.21104  eV     2   --> G_7   D_7      
     e(113 -114) =     40.91868  eV     2   --> G_6   D_6      
     e(115 -116) =     41.25015  eV     2   --> G_6   D_6      
     e(117 -118) =     41.40844  eV     2   --> G_7   D_7      
     e(119 -120) =     42.17599  eV     2   --> G_7   D_7      
     e(121 -122) =     42.35524  eV     2   --> G_6   D_6      
     e(123 -124) =     46.23982  eV     2   --> G_6   D_6      
     e(125 -126) =     46.34424  eV     2   --> G_7   D_7      
     e(127 -128) =     46.84340  eV     2   --> G_7   D_7      
     e(129 -130) =     47.07214  eV     2   --> G_6   D_6      
     e(131 -132) =     49.04432  eV     2   --> G_7   D_7      
     e(133 -134) =     49.13269  eV     2   --> G_6   D_6      
     e(135 -136) =     49.67202  eV     2   --> G_6   D_6      
     e(137 -138) =     49.92833  eV     2   --> G_7   D_7      
     e(139 -140) =     50.98657  eV     2   --> G_7   D_7      
     e(141 -142) =     51.15221  eV     2   --> G_6   D_6      
     e(143 -144) =     51.63982  eV     2   --> G_7   D_7      
     e(145 -146) =     51.87753  eV     2   --> G_6   D_6      
     e(147 -148) =     52.36126  eV     2   --> G_7   D_7      
     e(149 -150) =     52.44695  eV     2   --> G_6   D_6      
     e(151 -152) =     54.40716  eV     2   --> G_6   D_6      
     e(153 -154) =     55.74099  eV     2   --> G_6   D_6      
     e(155 -156) =     56.04275  eV     2   --> G_7   D_7      
     e(157 -158) =     56.08187  eV     2   --> G_7   D_7      
     e(159 -160) =     56.38318  eV     2   --> G_6   D_6      

 **************************************************************************

 **************************************************************************

                    xk=(   0.00000,   0.00000,   0.17896  )

     Band symmetry, C_4v (4mm)  double point group:

     e(  1 -  2) =    -11.99515  eV     2   --> G_7   D_7      
     e(  3 -  4) =    -11.99295  eV     2   --> G_7   D_7      
     e(  5 -  6) =    -11.98145  eV     2   --> G_6   D_6      
     e(  7 -  8) =    -11.96784  eV     2   --> G_6   D_6      
     e(  9 - 10) =     -9.05103  eV     2   --> G_7   D_7      
     e( 11 - 12) =     -9.04941  eV     2   --> G_7   D_7      
     e( 13 - 14) =     -9.01716  eV     2   --> G_6   D_6      
     e( 15 - 16) =     -8.98025  eV     2   --> G_6   D_6      
     e( 17 - 18) =     -8.92959  eV     2   --> G_7   D_7      
     e( 19 - 20) =     -8.90306  eV     2   --> G_7   D_7      
     e( 21 - 22) =     -0.55205  eV     2   --> G_6   D_6      
     e( 23 - 24) =      0.22375  eV     2   --> G_6   D_6      
     e( 25 - 26) =      7.36427  eV     2   --> G_6   D_6      
     e( 27 - 28) =      8.43811  eV     2   --> G_7   D_7      
     e( 29 - 30) =      8.93622  eV     2   --> G_6   D_6      
     e( 31 - 32) =      9.33144  eV     2   --> G_7   D_7      
     e( 33 - 34) =      9.64243  eV     2   --> G_6   D_6      
     e( 35 - 36) =      9.79934  eV     2   --> G_7   D_7      
     e( 37 - 38) =     11.06476  eV     2   --> G_6   D_6      
     e( 39 - 40) =     13.42435  eV     2   --> G_6   D_6      
     e( 41 - 42) =     14.86610  eV     2   --> G_7   D_7      
     e( 43 - 44) =     15.32436  eV     2   --> G_6   D_6      
     e( 45 - 46) =     17.64239  eV     2   --> G_7   D_7      
     e( 47 - 48) =     18.35730  eV     2   --> G_6   D_6      
     e( 49 - 50) =     19.04214  eV     2   --> G_6   D_6      
     e( 51 - 52) =     19.76790  eV     2   --> G_7   D_7      
     e( 53 - 54) =     21.12874  eV     2   --> G_7   D_7      
     e( 55 - 56) =     21.42601  eV     2   --> G_6   D_6      
     e( 57 - 58) =     22.25891  eV     2   --> G_6   D_6      
     e( 59 - 60) =     22.67795  eV     2   --> G_7   D_7      
     e( 61 - 62) =     23.34728  eV     2   --> G_6   D_6      
     e( 63 - 64) =     23.68476  eV     2   --> G_7   D_7      
     e( 65 - 66) =     27.10380  eV     2   --> G_6   D_6      
     e( 67 - 68) =     28.03824  eV     2   --> G_7   D_7      
     e( 69 - 70) =     28.06532  eV     2   --> G_6   D_6      
     e( 71 - 72) =     28.17594  eV     2   --> G_6   D_6      
     e( 73 - 74) =     28.21668  eV     2   --> G_7   D_7      
     e( 75 - 76) =     29.30569  eV     2   --> G_6   D_6      
     e( 77 - 78) =     29.61999  eV     2   --> G_7   D_7      
     e( 79 - 80) =     29.89929  eV     2   --> G_6   D_6      
     e( 81 - 82) =     30.25933  eV     2   --> G_7   D_7      
     e( 83 - 84) =     32.00970  eV     2   --> G_7   D_7      
     e( 85 - 86) =     32.71595  eV     2   --> G_6   D_6      
     e( 87 - 88) =     33.21718  eV     2   --> G_7   D_7      
     e( 89 - 90) =     33.48691  eV     2   --> G_7   D_7      
     e( 91 - 92) =     33.52301  eV     2   --> G_6   D_6      
     e( 93 - 94) =     33.78687  eV     2   --> G_7   D_7      
     e( 95 - 96) =     34.12405  eV     2   --> G_7   D_7      
     e( 97 - 98) =     34.16323  eV     2   --> G_6   D_6      
     e( 99 -100) =     36.85808  eV     2   --> G_6   D_6      
     e(101 -102) =     37.01124  eV     2   --> G_6   D_6      
     e(103 -104) =     37.17904  eV     2   --> G_7   D_7      
     e(105 -106) =     37.29966  eV     2   --> G_7   D_7      
     e(107 -108) =     38.01864  eV     2   --> G_6   D_6      
     e(109 -110) =     39.62894  eV     2   --> G_6   D_6      
     e(111 -112) =     40.01641  eV     2   --> G_7   D_7      
     e(113 -114) =     41.24245  eV     2   --> G_6   D_6      
     e(115 -116) =     41.50718  eV     2   --> G_7   D_7      
     e(117 -118) =     41.75924  eV     2   --> G_6   D_6      
     e(119 -120) =     42.14255  eV     2   --> G_6   D_6      
     e(121 -122) =     42.99948  eV     2   --> G_7   D_7      
     e(123 -124) =     46.16917  eV     2   --> G_6   D_6      
     e(125 -126) =     46.28896  eV     2   --> G_7   D_7      
     e(127 -128) =     47.22760  eV     2   --> G_7   D_7      
     e(129 -130) =     47.42982  eV     2   --> G_6   D_6      
     e(131 -132) =     48.21109  eV     2   --> G_7   D_7      
     e(133 -134) =     48.96886  eV     2   --> G_6   D_6      
     e(135 -136) =     49.54864  eV     2   --> G_6   D_6      
     e(137 -138) =     49.84740  eV     2   --> G_7   D_7      
     e(139 -140) =     50.37544  eV     2   --> G_7   D_7      
     e(141 -142) =     51.41637  eV     2   --> G_6   D_6      
     e(143 -144) =     51.82162  eV     2   --> G_6   D_6      
     e(145 -146) =     51.85818  eV     2   --> G_7   D_7      
     e(147 -148) =     52.33783  eV     2   --> G_7   D_7      
     e(149 -150) =     52.97462  eV     2   --> G_6   D_6      
     e(151 -152) =     53.77586  eV     2   --> G_6   D_6      
     e(153 -154) =     55.37015  eV     2   --> G_6   D_6      
     e(155 -156) =     55.78332  eV     2   --> G_7   D_7      
     e(157 -158) =     56.07014  eV     2   --> G_7   D_7      
     e(159 -160) =     56.17510  eV     2   --> G_6   D_6      

 **************************************************************************

 **************************************************************************

                    xk=(   0.00000,   0.00000,   0.20453  )

     Band symmetry, C_4v (4mm)  double point group:

     e(  1 -  2) =    -11.99519  eV     2   --> G_7   D_7      
     e(  3 -  4) =    -11.99303  eV     2   --> G_7   D_7      
     e(  5 -  6) =    -11.97995  eV     2   --> G_6   D_6      
     e(  7 -  8) =    -11.96939  eV     2   --> G_6   D_6      
     e(  9 - 10) =     -9.05115  eV     2   --> G_7   D_7      
     e( 11 - 12) =     -9.04955  eV     2   --> G_7   D_7      
     e( 13 - 14) =     -9.01604  eV     2   --> G_6   D_6      
     e( 15 - 16) =     -8.98127  eV     2   --> G_6   D_6      
     e( 17 - 18) =     -8.93028  eV     2   --> G_7   D_7      
     e( 19 - 20) =     -8.90225  eV     2   --> G_7   D_7      
     e( 21 - 22) =     -0.45921  eV     2   --> G_6   D_6      
     e( 23 - 24) =      0.09664  eV     2   --> G_6   D_6      
     e( 25 - 26) =      7.58775  eV     2   --> G_6   D_6      
     e( 27 - 28) =      8.43814  eV     2   --> G_7   D_7      
     e( 29 - 30) =      8.94991  eV     2   --> G_6   D_6      
     e( 31 - 32) =      9.33362  eV     2   --> G_7   D_7      
     e( 33 - 34) =      9.59386  eV     2   --> G_6   D_6      
     e( 35 - 36) =      9.79957  eV     2   --> G_7   D_7      
     e( 37 - 38) =     10.83227  eV     2   --> G_6   D_6      
     e( 39 - 40) =     13.32497  eV     2   --> G_6   D_6      
     e( 41 - 42) =     14.80982  eV     2   --> G_7   D_7      
     e( 43 - 44) =     15.40226  eV     2   --> G_6   D_6      
     e( 45 - 46) =     17.78320  eV     2   --> G_7   D_7      
     e( 47 - 48) =     18.37922  eV     2   --> G_6   D_6      
     e( 49 - 50) =     19.29821  eV     2   --> G_6   D_6      
     e( 51 - 52) =     19.79274  eV     2   --> G_7   D_7      
     e( 53 - 54) =     21.09546  eV     2   --> G_7   D_7      
     e( 55 - 56) =     21.15741  eV     2   --> G_6   D_6      
     e( 57 - 58) =     22.07044  eV     2   --> G_6   D_6      
     e( 59 - 60) =     22.48005  eV     2   --> G_7   D_7      
     e( 61 - 62) =     23.63399  eV     2   --> G_7   D_7      
     e( 63 - 64) =     23.95514  eV     2   --> G_6   D_6      
     e( 65 - 66) =     26.72699  eV     2   --> G_6   D_6      
     e( 67 - 68) =     27.91219  eV     2   --> G_6   D_6      
     e( 69 - 70) =     28.26332  eV     2   --> G_7   D_7      
     e( 71 - 72) =     28.33061  eV     2   --> G_6   D_6      
     e( 73 - 74) =     28.37408  eV     2   --> G_7   D_7      
     e( 75 - 76) =     29.58797  eV     2   --> G_6   D_6      
     e( 77 - 78) =     29.80545  eV     2   --> G_6   D_6      
     e( 79 - 80) =     29.88405  eV     2   --> G_7   D_7      
     e( 81 - 82) =     30.11585  eV     2   --> G_7   D_7      
     e( 83 - 84) =     31.99757  eV     2   --> G_7   D_7      
     e( 85 - 86) =     32.77461  eV     2   --> G_6   D_6      
     e( 87 - 88) =     32.97598  eV     2   --> G_7   D_7      
     e( 89 - 90) =     33.21748  eV     2   --> G_6   D_6      
     e( 91 - 92) =     33.41875  eV     2   --> G_7   D_7      
     e( 93 - 94) =     33.66431  eV     2   --> G_7   D_7      
     e( 95 - 96) =     33.84464  eV     2   --> G_7   D_7      
     e( 97 - 98) =     33.90405  eV     2   --> G_6   D_6      
     e( 99 -100) =     36.80452  eV     2   --> G_6   D_6      
     e(101 -102) =     37.24402  eV     2   --> G_7   D_7      
     e(103 -104) =     37.26365  eV     2   --> G_6   D_6      
     e(105 -106) =     37.63473  eV     2   --> G_7   D_7      
     e(107 -108) =     38.06206  eV     2   --> G_6   D_6      
     e(109 -110) =     39.30011  eV     2   --> G_6   D_6      
     e(111 -112) =     39.64935  eV     2   --> G_7   D_7      
     e(113 -114) =     41.48468  eV     2   --> G_6   D_6      
     e(115 -116) =     41.70484  eV     2   --> G_7   D_7      
     e(117 -118) =     41.93620  eV     2   --> G_6   D_6      
     e(119 -120) =     42.47828  eV     2   --> G_6   D_6      
     e(121 -122) =     43.82807  eV     2   --> G_7   D_7      
     e(123 -124) =     46.06532  eV     2   --> G_6   D_6      
     e(125 -126) =     46.20467  eV     2   --> G_7   D_7      
     e(127 -128) =     47.13832  eV     2   --> G_6   D_6      
     e(129 -130) =     47.36321  eV     2   --> G_7   D_7      
     e(131 -132) =     47.65862  eV     2   --> G_7   D_7      
     e(133 -134) =     49.33199  eV     2   --> G_6   D_6      
     e(135 -136) =     49.56273  eV     2   --> G_6   D_6      
     e(137 -138) =     49.75925  eV     2   --> G_7   D_7      
     e(139 -140) =     49.83899  eV     2   --> G_7   D_7      
     e(141 -142) =     51.63932  eV     2   --> G_6   D_6      
     e(143 -144) =     51.80626  eV     2   --> G_6   D_6      
     e(145 -146) =     52.04319  eV     2   --> G_7   D_7      
     e(147 -148) =     52.33025  eV     2   --> G_7   D_7      
     e(149 -150) =     52.96173  eV     2   --> G_6   D_6      
     e(151 -152) =     53.70140  eV     2   --> G_6   D_6      
     e(153 -154) =     55.00743  eV     2   --> G_6   D_6      
     e(155 -156) =     55.50266  eV     2   --> G_7   D_7      
     e(157 -158) =     55.88477  eV     2   --> G_6   D_6      
     e(159 -160) =     56.08759  eV     2   --> G_7   D_7      

 **************************************************************************

 **************************************************************************

                    xk=(   0.00000,   0.00000,   0.23009  )

     Band symmetry, C_4v (4mm)  double point group:

     e(  1 -  2) =    -11.99504  eV     2   --> G_7   D_7      
     e(  3 -  4) =    -11.99288  eV     2   --> G_7   D_7      
     e(  5 -  6) =    -11.97838  eV     2   --> G_6   D_6      
     e(  7 -  8) =    -11.97043  eV     2   --> G_6   D_6      
     e(  9 - 10) =     -9.05103  eV     2   --> G_7   D_7      
     e( 11 - 12) =     -9.04944  eV     2   --> G_7   D_7      
     e( 13 - 14) =     -9.01505  eV     2   --> G_6   D_6      
     e( 15 - 16) =     -8.98170  eV     2   --> G_6   D_6      
     e( 17 - 18) =     -8.93053  eV     2   --> G_7   D_7      
     e( 19 - 20) =     -8.90154  eV     2   --> G_7   D_7      
     e( 21 - 22) =     -0.36873  eV     2   --> G_6   D_6      
     e( 23 - 24) =     -0.01539  eV     2   --> G_6   D_6      
     e( 25 - 26) =      7.75152  eV     2   --> G_6   D_6      
     e( 27 - 28) =      8.43816  eV     2   --> G_7   D_7      
     e( 29 - 30) =      8.96491  eV     2   --> G_6   D_6      
     e( 31 - 32) =      9.33503  eV     2   --> G_7   D_7      
     e( 33 - 34) =      9.54097  eV     2   --> G_6   D_6      
     e( 35 - 36) =      9.79972  eV     2   --> G_7   D_7      
     e( 37 - 38) =     10.67791  eV     2   --> G_6   D_6      
     e( 39 - 40) =     13.26664  eV     2   --> G_6   D_6      
     e( 41 - 42) =     14.77551  eV     2   --> G_7   D_7      
     e( 43 - 44) =     15.45200  eV     2   --> G_6   D_6      
     e( 45 - 46) =     17.87521  eV     2   --> G_7   D_7      
     e( 47 - 48) =     18.38706  eV     2   --> G_6   D_6      
     e( 49 - 50) =     19.50765  eV     2   --> G_6   D_6      
     e( 51 - 52) =     19.80947  eV     2   --> G_7   D_7      
     e( 53 - 54) =     20.93932  eV     2   --> G_6   D_6      
     e( 55 - 56) =     21.07290  eV     2   --> G_7   D_7      
     e( 57 - 58) =     21.95490  eV     2   --> G_6   D_6      
     e( 59 - 60) =     22.35389  eV     2   --> G_7   D_7      
     e( 61 - 62) =     23.60306  eV     2   --> G_7   D_7      
     e( 63 - 64) =     24.60549  eV     2   --> G_6   D_6      
     e( 65 - 66) =     26.07462  eV     2   --> G_6   D_6      
     e( 67 - 68) =     27.96730  eV     2   --> G_6   D_6      
     e( 69 - 70) =     28.41830  eV     2   --> G_7   D_7      
     e( 71 - 72) =     28.45878  eV     2   --> G_6   D_6      
     e( 73 - 74) =     28.47902  eV     2   --> G_7   D_7      
     e( 75 - 76) =     29.52606  eV     2   --> G_6   D_6      
     e( 77 - 78) =     29.92238  eV     2   --> G_7   D_7      
     e( 79 - 80) =     29.99903  eV     2   --> G_6   D_6      
     e( 81 - 82) =     30.17874  eV     2   --> G_7   D_7      
     e( 83 - 84) =     31.99004  eV     2   --> G_7   D_7      
     e( 85 - 86) =     32.76047  eV     2   --> G_7   D_7      
     e( 87 - 88) =     32.85262  eV     2   --> G_6   D_6      
     e( 89 - 90) =     33.00560  eV     2   --> G_6   D_6      
     e( 91 - 92) =     33.32108  eV     2   --> G_7   D_7      
     e( 93 - 94) =     33.60501  eV     2   --> G_7   D_7      
     e( 95 - 96) =     33.67140  eV     2   --> G_6   D_6      
     e( 97 - 98) =     33.73165  eV     2   --> G_7   D_7      
     e( 99 -100) =     36.68110  eV     2   --> G_6   D_6      
     e(101 -102) =     37.22451  eV     2   --> G_7   D_7      
     e(103 -104) =     37.61659  eV     2   --> G_6   D_6      
     e(105 -106) =     38.04399  eV     2   --> G_7   D_7      
     e(107 -108) =     38.11385  eV     2   --> G_6   D_6      
     e(109 -110) =     38.94889  eV     2   --> G_6   D_6      
     e(111 -112) =     39.25579  eV     2   --> G_7   D_7      
     e(113 -114) =     41.65721  eV     2   --> G_6   D_6      
     e(115 -116) =     41.84181  eV     2   --> G_6   D_6      
     e(117 -118) =     41.86191  eV     2   --> G_7   D_7      
     e(119 -120) =     43.04161  eV     2   --> G_6   D_6      
     e(121 -122) =     44.63922  eV     2   --> G_7   D_7      
     e(123 -124) =     45.97547  eV     2   --> G_6   D_6      
     e(125 -126) =     46.13035  eV     2   --> G_7   D_7      
     e(127 -128) =     46.54514  eV     2   --> G_7   D_7      
     e(129 -130) =     46.67651  eV     2   --> G_6   D_6      
     e(131 -132) =     48.10753  eV     2   --> G_7   D_7      
     e(133 -134) =     49.23413  eV     2   --> G_7   D_7      
     e(135 -136) =     49.41829  eV     2   --> G_6   D_6      
     e(137 -138) =     49.80261  eV     2   --> G_7   D_7      
     e(139 -140) =     50.09095  eV     2   --> G_6   D_6      
     e(141 -142) =     51.64506  eV     2   --> G_6   D_6      
     e(143 -144) =     51.94578  eV     2   --> G_6   D_6      
     e(145 -146) =     52.13254  eV     2   --> G_7   D_7      
     e(147 -148) =     52.35710  eV     2   --> G_6   D_6      
     e(149 -150) =     52.37285  eV     2   --> G_7   D_7      
     e(151 -152) =     54.25165  eV     2   --> G_6   D_6      
     e(153 -154) =     54.73093  eV     2   --> G_6   D_6      
     e(155 -156) =     55.29624  eV     2   --> G_7   D_7      
     e(157 -158) =     55.51116  eV     2   --> G_6   D_6      
     e(159 -160) =     56.09840  eV     2   --> G_7   D_7      

 **************************************************************************

 **************************************************************************

                    xk=(   0.00000,   0.00000,   0.25566  )

     double point group D_4h(4/mmm)
     there are 14 classes and  4 irreducible representations
     the character table:

       E     -E    2C4   -2C4   C2    2C2' 2C2'' i     -i    2S4   -2S4   s_h 
                               -C2   -2C2' -2C2'                         -s_h 
G_6+   2.00 -2.00  1.41 -1.41  0.00  0.00  0.00  2.00 -2.00  1.41 -1.41  0.00
G_7+   2.00 -2.00 -1.41  1.41  0.00  0.00  0.00  2.00 -2.00 -1.41  1.41  0.00
G_6-   2.00 -2.00  1.41 -1.41  0.00  0.00  0.00 -2.00  2.00 -1.41  1.41  0.00
G_7-   2.00 -2.00 -1.41  1.41  0.00  0.00  0.00 -2.00  2.00  1.41 -1.41  0.00

        2s_v  2s_d
       -2s_v -2s_d
G_6+   0.00  0.00
G_7+   0.00  0.00
G_6-   0.00  0.00
G_7-   0.00  0.00

     the symmetry operations in each class and the name of the first element:

     E             1
                                                                 
     -E           -1
                                                                 
     2C4           7    8
                                                                 
     -2C4         -7   -8
                                                                 
      C2  -C2      2   -2
                                                                 
      2C2'-2C2'    3   -3    4   -4
                                                                 
     2C2''-2C2'    5   -5   -6    6
                                                                 
     i             9
                                                                 
     -i           -9
                                                                 
     2S4          15   16
                                                                 
     -2S4        -15  -16
                                                                 
      s_h -s_h    10  -10
                                                                 
      2s_v-2s_v   11  -11   12  -12
                                                                 
      2s_d-2s_d   13  -13  -14   14
                                                                 

     Band symmetry, D_4h(4/mmm) double point group:

     e(  1 -  2) =    -11.99511  eV     2   --> G_7-  M_7-     
     e(  3 -  4) =    -11.99294  eV     2   --> G_7+  M_7+     
     e(  5 -  6) =    -11.97794  eV     2   --> G_6+  M_6+     
     e(  7 -  8) =    -11.97101  eV     2   --> G_6-  M_6-     
     e(  9 - 10) =     -9.05110  eV     2   --> G_7-  M_7-     
     e( 11 - 12) =     -9.04949  eV     2   --> G_7+  M_7+     
     e( 13 - 14) =     -9.01484  eV     2   --> G_6+  M_6+     
     e( 15 - 16) =     -8.98198  eV     2   --> G_6-  M_6-     
     e( 17 - 18) =     -8.93078  eV     2   --> G_7-  M_7-     
     e( 19 - 20) =     -8.90146  eV     2   --> G_7+  M_7+     
     e( 21 - 22) =     -0.32033  eV     2   --> G_6+  M_6+     
     e( 23 - 24) =     -0.07115  eV     2   --> G_6-  M_6-     
     e( 25 - 26) =      7.81307  eV     2   --> G_6+  M_6+     
     e( 27 - 28) =      8.43817  eV     2   --> G_7+  M_7+     
     e( 29 - 30) =      8.97248  eV     2   --> G_6+  M_6+     
     e( 31 - 32) =      9.33551  eV     2   --> G_7+  M_7+     
     e( 33 - 34) =      9.51565  eV     2   --> G_6-  M_6-     
     e( 35 - 36) =      9.79977  eV     2   --> G_7+  M_7+     
     e( 37 - 38) =     10.62425  eV     2   --> G_6+  M_6+     
     e( 39 - 40) =     13.24742  eV     2   --> G_6-  M_6-     
     e( 41 - 42) =     14.76399  eV     2   --> G_7-  M_7-     
     e( 43 - 44) =     15.46910  eV     2   --> G_6+  M_6+     
     e( 45 - 46) =     17.90732  eV     2   --> G_7+  M_7+     
     e( 47 - 48) =     18.38907  eV     2   --> G_6+  M_6+     
     e( 49 - 50) =     19.59494  eV     2   --> G_6-  M_6-     
     e( 51 - 52) =     19.81538  eV     2   --> G_7+  M_7+     
     e( 53 - 54) =     20.84874  eV     2   --> G_6+  M_6+     
     e( 55 - 56) =     21.06488  eV     2   --> G_7-  M_7-     
     e( 57 - 58) =     21.91607  eV     2   --> G_6-  M_6-     
     e( 59 - 60) =     22.31044  eV     2   --> G_7-  M_7-     
     e( 61 - 62) =     23.59268  eV     2   --> G_7+  M_7+     
     e( 63 - 64) =     25.12499  eV     2   --> G_6-  M_6-     
     e( 65 - 66) =     25.54311  eV     2   --> G_6+  M_6+     
     e( 67 - 68) =     27.99752  eV     2   --> G_6-  M_6-     
     e( 69 - 70) =     28.47412  eV     2   --> G_7-  M_7-     
     e( 71 - 72) =     28.51190  eV     2   --> G_6-  M_6-     
     e( 73 - 74) =     28.51690  eV     2   --> G_7-  M_7-     
     e( 75 - 76) =     29.47892  eV     2   --> G_6+  M_6+     
     e( 77 - 78) =     29.89068  eV     2   --> G_7+  M_7+     
     e( 79 - 80) =     30.09213  eV     2   --> G_6-  M_6-     
     e( 81 - 82) =     30.25106  eV     2   --> G_7-  M_7-     
     e( 83 - 84) =     31.98747  eV     2   --> G_7-  M_7-     
     e( 85 - 86) =     32.68138  eV     2   --> G_7+  M_7+     
     e( 87 - 88) =     32.90263  eV     2   --> G_6-  M_6-     
     e( 89 - 90) =     32.92462  eV     2   --> G_6+  M_6+     
     e( 91 - 92) =     33.24967  eV     2   --> G_7+  M_7+     
     e( 93 - 94) =     33.56603  eV     2   --> G_6+  M_6+     
     e( 95 - 96) =     33.63618  eV     2   --> G_7-  M_7-     
     e( 97 - 98) =     33.67527  eV     2   --> G_7+  M_7+     
     e( 99 -100) =     36.64018  eV     2   --> G_6+  M_6+     
     e(101 -102) =     37.21741  eV     2   --> G_7+  M_7+     
     e(103 -104) =     37.78064  eV     2   --> G_6-  M_6-     
     e(105 -106) =     38.15600  eV     2   --> G_6-  M_6-     
     e(107 -108) =     38.27426  eV     2   --> G_7-  M_7-     
     e(109 -110) =     38.75928  eV     2   --> G_6+  M_6+     
     e(111 -112) =     39.02866  eV     2   --> G_7+  M_7+     
     e(113 -114) =     41.70591  eV     2   --> G_6+  M_6+     
     e(115 -116) =     41.82295  eV     2   --> G_6+  M_6+     
     e(117 -118) =     41.92000  eV     2   --> G_7+  M_7+     
     e(119 -120) =     43.28027  eV     2   --> G_6-  M_6-     
     e(121 -122) =     45.18750  eV     2   --> G_7+  M_7+     
     e(123 -124) =     45.94087  eV     2   --> G_6-  M_6-     
     e(125 -126) =     45.98780  eV     2   --> G_7-  M_7-     
     e(127 -128) =     46.10648  eV     2   --> G_7-  M_7-     
     e(129 -130) =     46.46073  eV     2   --> G_6+  M_6+     
     e(131 -132) =     48.44504  eV     2   --> G_7+  M_7+     
     e(133 -134) =     48.86510  eV     2   --> G_7-  M_7-     
     e(135 -136) =     49.41841  eV     2   --> G_6-  M_6-     
     e(137 -138) =     49.79930  eV     2   --> G_7-  M_7-     
     e(139 -140) =     50.45011  eV     2   --> G_6+  M_6+     
     e(141 -142) =     51.57228  eV     2   --> G_6-  M_6-     
     e(143 -144) =     52.03839  eV     2   --> G_6+  M_6+     
     e(145 -146) =     52.04691  eV     2   --> G_6-  M_6-     
     e(147 -148) =     52.14774  eV     2   --> G_7+  M_7+     
     e(149 -150) =     52.40784  eV     2   --> G_7-  M_7-     
     e(151 -152) =     54.60460  eV     2   --> G_6-  M_6-     
     e(153 -154) =     54.62437  eV     2   --> G_6+  M_6+     
     e(155 -156) =     55.21918  eV     2   --> G_7+  M_7+     
     e(157 -158) =     55.22804  eV     2   --> G_6+  M_6+     
     e(159 -160) =     56.10206  eV     2   --> G_7-  M_7-     

 **************************************************************************

 **************************************************************************

                    xk=(   0.05000,   0.00000,   0.24287  )

     double point group C_s (m)    
     there are  4 classes and  2 irreducible representations
     the character table:

       E     -E    s     -s   
                              
G_3    1.00 -1.00  0.00  0.00
G_4    1.00 -1.00  0.00  0.00

     imaginary part

       E     -E    s     -s   
                              
G_3    0.00  0.00  1.00 -1.00
G_4    0.00  0.00 -1.00  1.00

     the symmetry operations in each class and the name of the first element:

     E             1
                                                                 
     -E           -1
                                                                 
     s             2
                                                                 
     -s           -2
                                                                 

     Band symmetry, C_s (m)     double point group:

     e(  1 -  2) =    -11.99443  eV     2   --> G_3            
     e(  1 -  2) =    -11.99443  eV     2   --> G_4            
     e(  3 -  4) =    -11.99197  eV     2   --> G_3            
     e(  3 -  4) =    -11.99197  eV     2   --> G_4            
     e(  5 -  6) =    -11.97785  eV     2   --> G_3            
     e(  5 -  6) =    -11.97785  eV     2   --> G_4            
     e(  7 -  8) =    -11.97073  eV     2   --> G_3            
     e(  7 -  8) =    -11.97073  eV     2   --> G_4            
     e(  9 - 10) =     -9.04960  eV     2   --> G_3            
     e(  9 - 10) =     -9.04960  eV     2   --> G_4            
     e( 11 - 12) =     -9.04750  eV     2   --> G_3            
     e( 11 - 12) =     -9.04750  eV     2   --> G_4            
     e( 13 - 14) =     -9.01420  eV     2   --> G_3            
     e( 13 - 14) =     -9.01420  eV     2   --> G_4            
     e( 15 - 16) =     -8.98129  eV     2   --> G_3            
     e( 15 - 16) =     -8.98129  eV     2   --> G_4            
     e( 17 - 18) =     -8.93195  eV     2   --> G_3            
     e( 17 - 18) =     -8.93195  eV     2   --> G_4            
     e( 19 - 20) =     -8.90248  eV     2   --> G_3            
     e( 19 - 20) =     -8.90248  eV     2   --> G_4            
     e( 21 - 22) =     -0.30542  eV     2   --> G_3            
     e( 21 - 22) =     -0.30542  eV     2   --> G_4            
     e( 23 - 24) =     -0.02911  eV     2   --> G_3            
     e( 23 - 24) =     -0.02911  eV     2   --> G_4            
     e( 25 - 26) =      7.82208  eV     2   --> G_3            
     e( 25 - 26) =      7.82208  eV     2   --> G_4            
     e( 27 - 28) =      8.44474  eV     2   --> G_3            
     e( 27 - 28) =      8.44474  eV     2   --> G_4            
     e( 29 - 30) =      8.92229  eV     2   --> G_3            
     e( 29 - 30) =      8.92229  eV     2   --> G_4            
     e( 31 - 32) =      9.25120  eV     2   --> G_3            
     e( 31 - 32) =      9.25120  eV     2   --> G_4            
     e( 33 - 34) =      9.67238  eV     2   --> G_3            
     e( 33 - 34) =      9.67238  eV     2   --> G_4            
     e( 35 - 36) =      9.77693  eV     2   --> G_3            
     e( 35 - 36) =      9.77693  eV     2   --> G_4            
     e( 37 - 38) =     10.61677  eV     2   --> G_3            
     e( 37 - 38) =     10.61677  eV     2   --> G_4            
     e( 39 - 40) =     13.16682  eV     2   --> G_3            
     e( 39 - 40) =     13.16682  eV     2   --> G_4            
     e( 41 - 42) =     14.62478  eV     2   --> G_3            
     e( 41 - 42) =     14.62478  eV     2   --> G_4            
     e( 43 - 44) =     15.32234  eV     2   --> G_3            
     e( 43 - 44) =     15.32234  eV     2   --> G_4            
     e( 45 - 46) =     17.55960  eV     2   --> G_3            
     e( 45 - 46) =     17.55960  eV     2   --> G_4            
     e( 47 - 48) =     18.55918  eV     2   --> G_3            
     e( 47 - 48) =     18.55918  eV     2   --> G_4            
     e( 49 - 50) =     19.87258  eV     2   --> G_3            
     e( 49 - 50) =     19.87258  eV     2   --> G_4            
     e( 51 - 52) =     19.95613  eV     2   --> G_3            
     e( 51 - 52) =     19.95613  eV     2   --> G_4            
     e( 53 - 54) =     20.48720  eV     2   --> G_3            
     e( 53 - 54) =     20.48720  eV     2   --> G_4            
     e( 55 - 56) =     21.31656  eV     2   --> G_3            
     e( 55 - 56) =     21.31656  eV     2   --> G_4            
     e( 57 - 58) =     22.04804  eV     2   --> G_3            
     e( 57 - 58) =     22.04804  eV     2   --> G_4            
     e( 59 - 60) =     22.41008  eV     2   --> G_3            
     e( 59 - 60) =     22.41008  eV     2   --> G_4            
     e( 61 - 62) =     23.95503  eV     2   --> G_3            
     e( 61 - 62) =     23.95503  eV     2   --> G_4            
     e( 63 - 64) =     24.93350  eV     2   --> G_3            
     e( 63 - 64) =     24.93350  eV     2   --> G_4            
     e( 65 - 66) =     25.74639  eV     2   --> G_3            
     e( 65 - 66) =     25.74639  eV     2   --> G_4            
     e( 67 - 68) =     27.81119  eV     2   --> G_3            
     e( 67 - 68) =     27.81119  eV     2   --> G_4            
     e( 69 - 70) =     28.32426  eV     2   --> G_3            
     e( 69 - 70) =     28.32426  eV     2   --> G_4            
     e( 71 - 72) =     28.44532  eV     2   --> G_3            
     e( 71 - 72) =     28.44532  eV     2   --> G_4            
     e( 73 - 74) =     28.48280  eV     2   --> G_3            
     e( 73 - 74) =     28.48280  eV     2   --> G_4            
     e( 75 - 76) =     29.14774  eV     2   --> G_3            
     e( 75 - 76) =     29.14774  eV     2   --> G_4            
     e( 77 - 78) =     29.45905  eV     2   --> G_3            
     e( 77 - 78) =     29.45905  eV     2   --> G_4            
     e( 79 - 80) =     29.82321  eV     2   --> G_3            
     e( 79 - 80) =     29.82321  eV     2   --> G_4            
     e( 81 - 82) =     29.95817  eV     2   --> G_3            
     e( 81 - 82) =     29.95817  eV     2   --> G_4            
     e( 83 - 84) =     32.38080  eV     2   --> G_3            
     e( 83 - 84) =     32.38080  eV     2   --> G_4            
     e( 85 - 86) =     32.89380  eV     2   --> G_3            
     e( 85 - 86) =     32.89380  eV     2   --> G_4            
     e( 87 - 88) =     33.04195  eV     2   --> G_3            
     e( 87 - 88) =     33.04195  eV     2   --> G_4            
     e( 89 - 90) =     33.31559  eV     2   --> G_3            
     e( 89 - 90) =     33.31559  eV     2   --> G_4            
     e( 91 - 92) =     33.48382  eV     2   --> G_3            
     e( 91 - 92) =     33.48382  eV     2   --> G_4            
     e( 93 - 94) =     33.56102  eV     2   --> G_3            
     e( 93 - 94) =     33.56102  eV     2   --> G_4            
     e( 95 - 96) =     33.80640  eV     2   --> G_3            
     e( 95 - 96) =     33.80640  eV     2   --> G_4            
     e( 97 - 98) =     33.95764  eV     2   --> G_3            
     e( 97 - 98) =     33.95764  eV     2   --> G_4            
     e( 99 -100) =     36.63327  eV     2   --> G_3            
     e( 99 -100) =     36.63327  eV     2   --> G_4            
     e(101 -102) =     36.79949  eV     2   --> G_3            
     e(101 -102) =     36.79949  eV     2   --> G_4            
     e(103 -104) =     37.28818  eV     2   --> G_3            
     e(103 -104) =     37.28818  eV     2   --> G_4            
     e(105 -106) =     37.88420  eV     2   --> G_3            
     e(105 -106) =     37.88420  eV     2   --> G_4            
     e(107 -108) =     38.60727  eV     2   --> G_3            
     e(107 -108) =     38.60727  eV     2   --> G_4            
     e(109 -110) =     39.09742  eV     2   --> G_3            
     e(109 -110) =     39.09742  eV     2   --> G_4            
     e(111 -112) =     39.73186  eV     2   --> G_3            
     e(111 -112) =     39.73186  eV     2   --> G_4            
     e(113 -114) =     41.60983  eV     2   --> G_3            
     e(113 -114) =     41.60983  eV     2   --> G_4            
     e(115 -116) =     41.86026  eV     2   --> G_3            
     e(115 -116) =     41.86026  eV     2   --> G_4            
     e(117 -118) =     42.15832  eV     2   --> G_3            
     e(117 -118) =     42.15832  eV     2   --> G_4            
     e(119 -120) =     43.31146  eV     2   --> G_3            
     e(119 -120) =     43.31146  eV     2   --> G_4            
     e(121 -122) =     44.72167  eV     2   --> G_3            
     e(121 -122) =     44.72167  eV     2   --> G_4            
     e(123 -124) =     45.86723  eV     2   --> G_3            
     e(123 -124) =     45.86723  eV     2   --> G_4            
     e(125 -126) =     45.97574  eV     2   --> G_3            
     e(125 -126) =     45.97574  eV     2   --> G_4            
     e(127 -128) =     46.39917  eV     2   --> G_3            
     e(127 -128) =     46.39917  eV     2   --> G_4            
     e(129 -130) =     46.80047  eV     2   --> G_3            
     e(129 -130) =     46.80047  eV     2   --> G_4            
     e(131 -132) =     48.28621  eV     2   --> G_3            
     e(131 -132) =     48.28621  eV     2   --> G_4            
     e(133 -134) =     48.87839  eV     2   --> G_3            
     e(133 -134) =     48.87839  eV     2   --> G_4            
     e(135 -136) =     49.20468  eV     2   --> G_3            
     e(135 -136) =     49.20468  eV     2   --> G_4            
     e(137 -138) =     49.75348  eV     2   --> G_3            
     e(137 -138) =     49.75348  eV     2   --> G_4            
     e(139 -140) =     50.08679  eV     2   --> G_3            
     e(139 -140) =     50.08679  eV     2   --> G_4            
     e(141 -142) =     51.31936  eV     2   --> G_3            
     e(141 -142) =     51.31936  eV     2   --> G_4            
     e(143 -144) =     51.83002  eV     2   --> G_3            
     e(143 -144) =     51.83002  eV     2   --> G_4            
     e(145 -146) =     52.06326  eV     2   --> G_3            
     e(145 -146) =     52.06326  eV     2   --> G_4            
     e(147 -148) =     52.31079  eV     2   --> G_3            
     e(147 -148) =     52.31079  eV     2   --> G_4            
     e(149 -150) =     52.75549  eV     2   --> G_3            
     e(149 -150) =     52.75549  eV     2   --> G_4            
     e(151 -152) =     53.79307  eV     2   --> G_3            
     e(151 -152) =     53.79307  eV     2   --> G_4            
     e(153 -154) =     54.97081  eV     2   --> G_3            
     e(153 -154) =     54.97081  eV     2   --> G_4            
     e(155 -156) =     55.19122  eV     2   --> G_3            
     e(155 -156) =     55.19122  eV     2   --> G_4            
     e(157 -158) =     55.37146  eV     2   --> G_3            
     e(157 -158) =     55.37146  eV     2   --> G_4            
     e(159 -160) =     56.25490  eV     2   --> G_3            
     e(159 -160) =     56.25490  eV     2   --> G_4            

 **************************************************************************

 **************************************************************************

                    xk=(   0.10000,   0.00000,   0.23009  )

     Band symmetry, C_s (m)     double point group:

     e(  1 -  2) =    -11.99273  eV     2   --> G_3            
     e(  1 -  2) =    -11.99273  eV     2   --> G_4            
     e(  3 -  4) =    -11.98999  eV     2   --> G_3            
     e(  3 -  4) =    -11.98999  eV     2   --> G_4            
     e(  5 -  6) =    -11.97748  eV     2   --> G_3            
     e(  5 -  6) =    -11.97748  eV     2   --> G_4            
     e(  7 -  8) =    -11.96999  eV     2   --> G_3            
     e(  7 -  8) =    -11.96999  eV     2   --> G_4            
     e(  9 - 10) =     -9.04530  eV     2   --> G_3            
     e(  9 - 10) =     -9.04530  eV     2   --> G_4            
     e( 11 - 12) =     -9.04260  eV     2   --> G_3            
     e( 11 - 12) =     -9.04260  eV     2   --> G_4            
     e( 13 - 14) =     -9.01212  eV     2   --> G_3            
     e( 13 - 14) =     -9.01212  eV     2   --> G_4            
     e( 15 - 16) =     -8.97936  eV     2   --> G_3            
     e( 15 - 16) =     -8.97936  eV     2   --> G_4            
     e( 17 - 18) =     -8.93533  eV     2   --> G_3            
     e( 17 - 18) =     -8.93533  eV     2   --> G_4            
     e( 19 - 20) =     -8.90607  eV     2   --> G_3            
     e( 19 - 20) =     -8.90607  eV     2   --> G_4            
     e( 21 - 22) =     -0.25391  eV     2   --> G_3            
     e( 21 - 22) =     -0.25391  eV     2   --> G_4            
     e( 23 - 24) =      0.08864  eV     2   --> G_3            
     e( 23 - 24) =      0.08864  eV     2   --> G_4            
     e( 25 - 26) =      7.84566  eV     2   --> G_3            
     e( 25 - 26) =      7.84566  eV     2   --> G_4            
[...]
     e(135 -136) =     48.80973  eV     2   --> G_4            
     e(137 -138) =     49.12819  eV     2   --> G_3            
     e(137 -138) =     49.12819  eV     2   --> G_4            
     e(139 -140) =     49.37204  eV     2   --> G_3            
     e(139 -140) =     49.37204  eV     2   --> G_4            
     e(141 -142) =     50.32920  eV     2   --> G_3            
     e(141 -142) =     50.32920  eV     2   --> G_4            
     e(143 -144) =     51.14158  eV     2   --> G_3            
     e(143 -144) =     51.14158  eV     2   --> G_4            
     e(145 -146) =     51.38909  eV     2   --> G_3            
     e(145 -146) =     51.38909  eV     2   --> G_4            
     e(147 -148) =     51.94397  eV     2   --> G_3            
     e(147 -148) =     51.94397  eV     2   --> G_4            
     e(149 -150) =     53.18777  eV     2   --> G_3            
     e(149 -150) =     53.18777  eV     2   --> G_4            
     e(151 -152) =     53.56452  eV     2   --> G_3            
     e(151 -152) =     53.56452  eV     2   --> G_4            
     e(153 -154) =     54.62455  eV     2   --> G_3            
     e(153 -154) =     54.62455  eV     2   --> G_4            
     e(155 -156) =     55.08650  eV     2   --> G_3            
     e(155 -156) =     55.08650  eV     2   --> G_4            
     e(157 -158) =     55.27996  eV     2   --> G_3            
     e(157 -158) =     55.27996  eV     2   --> G_4            
     e(159 -160) =     55.33224  eV     2   --> G_3            
     e(159 -160) =     55.33224  eV     2   --> G_4            

 **************************************************************************

 **************************************************************************

                    xk=(   0.05000,  -0.05000,   0.23009  )

     Band symmetry, C_s (m)     double point group:

     e(  1 -  2) =    -11.99379  eV     2   --> G_3            
     e(  1 -  2) =    -11.99379  eV     2   --> G_4            
     e(  3 -  4) =    -11.99124  eV     2   --> G_3            
     e(  3 -  4) =    -11.99124  eV     2   --> G_4            
     e(  5 -  6) =    -11.97813  eV     2   --> G_3            
     e(  5 -  6) =    -11.97813  eV     2   --> G_4            
     e(  7 -  8) =    -11.97029  eV     2   --> G_3            
     e(  7 -  8) =    -11.97029  eV     2   --> G_4            
     e(  9 - 10) =     -9.04807  eV     2   --> G_3            
     e(  9 - 10) =     -9.04807  eV     2   --> G_4            
     e( 11 - 12) =     -9.04559  eV     2   --> G_3            
     e( 11 - 12) =     -9.04559  eV     2   --> G_4            
     e( 13 - 14) =     -9.01387  eV     2   --> G_3            
     e( 13 - 14) =     -9.01387  eV     2   --> G_4            
     e( 15 - 16) =     -8.98052  eV     2   --> G_3            
     e( 15 - 16) =     -8.98052  eV     2   --> G_4            
     e( 17 - 18) =     -8.93313  eV     2   --> G_3            
     e( 17 - 18) =     -8.93313  eV     2   --> G_4            
     e( 19 - 20) =     -8.90392  eV     2   --> G_3            
     e( 19 - 20) =     -8.90392  eV     2   --> G_4            
     e( 21 - 22) =     -0.31105  eV     2   --> G_3            
     e( 21 - 22) =     -0.31105  eV     2   --> G_4            
     e( 23 - 24) =      0.03691  eV     2   --> G_3            
     e( 23 - 24) =      0.03691  eV     2   --> G_4            
     e( 25 - 26) =      7.80065  eV     2   --> G_3            
     e( 25 - 26) =      7.80065  eV     2   --> G_4            
     e( 27 - 28) =      8.45161  eV     2   --> G_3            
     e( 27 - 28) =      8.45161  eV     2   --> G_4            
     e( 29 - 30) =      8.89208  eV     2   --> G_3            
     e( 29 - 30) =      8.89208  eV     2   --> G_4            
     e( 31 - 32) =      9.20565  eV     2   --> G_3            
     e( 31 - 32) =      9.20565  eV     2   --> G_4            
     e( 33 - 34) =      9.75132  eV     2   --> G_3            
     e( 33 - 34) =      9.75132  eV     2   --> G_4            
     e( 35 - 36) =      9.77254  eV     2   --> G_3            
     e( 35 - 36) =      9.77254  eV     2   --> G_4            
     e( 37 - 38) =     10.64479  eV     2   --> G_3            
     e( 37 - 38) =     10.64479  eV     2   --> G_4            
     e( 39 - 40) =     13.12613  eV     2   --> G_3            
     e( 39 - 40) =     13.12613  eV     2   --> G_4            
     e( 41 - 42) =     14.45745  eV     2   --> G_3            
     e( 41 - 42) =     14.45745  eV     2   --> G_4            
     e( 43 - 44) =     15.19812  eV     2   --> G_3            
     e( 43 - 44) =     15.19812  eV     2   --> G_4            
     e( 45 - 46) =     17.22914  eV     2   --> G_3            
     e( 45 - 46) =     17.22914  eV     2   --> G_4            
     e( 47 - 48) =     18.76163  eV     2   --> G_3            
     e( 47 - 48) =     18.76163  eV     2   --> G_4            
     e( 49 - 50) =     19.94057  eV     2   --> G_3            
     e( 49 - 50) =     19.94057  eV     2   --> G_4            
     e( 51 - 52) =     20.06298  eV     2   --> G_3            
     e( 51 - 52) =     20.06298  eV     2   --> G_4            
     e( 53 - 54) =     20.53434  eV     2   --> G_3            
     e( 53 - 54) =     20.53434  eV     2   --> G_4            
     e( 55 - 56) =     21.48066  eV     2   --> G_3            
     e( 55 - 56) =     21.48066  eV     2   --> G_4            
     e( 57 - 58) =     21.71744  eV     2   --> G_3            
     e( 57 - 58) =     21.71744  eV     2   --> G_4            
     e( 59 - 60) =     22.97750  eV     2   --> G_3            
     e( 59 - 60) =     22.97750  eV     2   --> G_4            
     e( 61 - 62) =     24.17410  eV     2   --> G_3            
     e( 61 - 62) =     24.17410  eV     2   --> G_4            
     e( 63 - 64) =     24.63395  eV     2   --> G_3            
     e( 63 - 64) =     24.63395  eV     2   --> G_4            
     e( 65 - 66) =     26.05158  eV     2   --> G_3            
     e( 65 - 66) =     26.05158  eV     2   --> G_4            
     e( 67 - 68) =     27.56407  eV     2   --> G_3            
     e( 67 - 68) =     27.56407  eV     2   --> G_4            
     e( 69 - 70) =     28.11901  eV     2   --> G_3            
     e( 69 - 70) =     28.11901  eV     2   --> G_4            
     e( 71 - 72) =     28.24788  eV     2   --> G_3            
     e( 71 - 72) =     28.24788  eV     2   --> G_4            
     e( 73 - 74) =     28.53098  eV     2   --> G_3            
     e( 73 - 74) =     28.53098  eV     2   --> G_4            
     e( 75 - 76) =     28.56171  eV     2   --> G_3            
     e( 75 - 76) =     28.56171  eV     2   --> G_4            
     e( 77 - 78) =     29.44394  eV     2   --> G_3            
     e( 77 - 78) =     29.44394  eV     2   --> G_4            
     e( 79 - 80) =     29.78790  eV     2   --> G_3            
     e( 79 - 80) =     29.78790  eV     2   --> G_4            
     e( 81 - 82) =     29.94698  eV     2   --> G_3            
     e( 81 - 82) =     29.94698  eV     2   --> G_4            
     e( 83 - 84) =     32.26329  eV     2   --> G_3            
     e( 83 - 84) =     32.26329  eV     2   --> G_4            
     e( 85 - 86) =     32.95559  eV     2   --> G_3            
     e( 85 - 86) =     32.95559  eV     2   --> G_4            
     e( 87 - 88) =     33.29615  eV     2   --> G_3            
     e( 87 - 88) =     33.29615  eV     2   --> G_4            
     e( 89 - 90) =     33.43483  eV     2   --> G_3            
     e( 89 - 90) =     33.43483  eV     2   --> G_4            
     e( 91 - 92) =     33.55416  eV     2   --> G_3            
     e( 91 - 92) =     33.55416  eV     2   --> G_4            
     e( 93 - 94) =     33.83666  eV     2   --> G_3            
     e( 93 - 94) =     33.83666  eV     2   --> G_4            
     e( 95 - 96) =     34.02316  eV     2   --> G_3            
     e( 95 - 96) =     34.02316  eV     2   --> G_4            
     e( 97 - 98) =     34.33545  eV     2   --> G_3            
     e( 97 - 98) =     34.33545  eV     2   --> G_4            
     e( 99 -100) =     36.10080  eV     2   --> G_3            
     e( 99 -100) =     36.10080  eV     2   --> G_4            
     e(101 -102) =     37.03738  eV     2   --> G_3            
     e(101 -102) =     37.03738  eV     2   --> G_4            
     e(103 -104) =     37.19368  eV     2   --> G_3            
     e(103 -104) =     37.19368  eV     2   --> G_4            
     e(105 -106) =     37.95089  eV     2   --> G_3            
     e(105 -106) =     37.95089  eV     2   --> G_4            
     e(107 -108) =     38.67466  eV     2   --> G_3            
     e(107 -108) =     38.67466  eV     2   --> G_4            
     e(109 -110) =     39.16654  eV     2   --> G_3            
     e(109 -110) =     39.16654  eV     2   --> G_4            
     e(111 -112) =     40.18054  eV     2   --> G_3            
     e(111 -112) =     40.18054  eV     2   --> G_4            
     e(113 -114) =     41.48381  eV     2   --> G_3            
     e(113 -114) =     41.48381  eV     2   --> G_4            
     e(115 -116) =     41.74378  eV     2   --> G_3            
     e(115 -116) =     41.74378  eV     2   --> G_4            
     e(117 -118) =     42.52720  eV     2   --> G_3            
     e(117 -118) =     42.52720  eV     2   --> G_4            
     e(119 -120) =     43.23086  eV     2   --> G_3            
     e(119 -120) =     43.23086  eV     2   --> G_4            
     e(121 -122) =     44.42572  eV     2   --> G_3            
     e(121 -122) =     44.42572  eV     2   --> G_4            
     e(123 -124) =     45.59476  eV     2   --> G_3            
     e(123 -124) =     45.59476  eV     2   --> G_4            
     e(125 -126) =     46.11050  eV     2   --> G_3            
     e(125 -126) =     46.11050  eV     2   --> G_4            
     e(127 -128) =     46.60364  eV     2   --> G_3            
     e(127 -128) =     46.60364  eV     2   --> G_4            
     e(129 -130) =     47.15754  eV     2   --> G_3            
     e(129 -130) =     47.15754  eV     2   --> G_4            
     e(131 -132) =     48.13687  eV     2   --> G_3            
     e(131 -132) =     48.13687  eV     2   --> G_4            
     e(133 -134) =     48.84113  eV     2   --> G_3            
     e(133 -134) =     48.84113  eV     2   --> G_4            
     e(135 -136) =     49.29432  eV     2   --> G_3            
     e(135 -136) =     49.29432  eV     2   --> G_4            
     e(137 -138) =     49.53480  eV     2   --> G_3            
     e(137 -138) =     49.53480  eV     2   --> G_4            
     e(139 -140) =     49.88662  eV     2   --> G_3            
     e(139 -140) =     49.88662  eV     2   --> G_4            
     e(141 -142) =     51.12593  eV     2   --> G_3            
     e(141 -142) =     51.12593  eV     2   --> G_4            
     e(143 -144) =     51.73369  eV     2   --> G_3            
     e(143 -144) =     51.73369  eV     2   --> G_4            
     e(145 -146) =     51.91787  eV     2   --> G_3            
     e(145 -146) =     51.91787  eV     2   --> G_4            
     e(147 -148) =     52.14287  eV     2   --> G_3            
     e(147 -148) =     52.14287  eV     2   --> G_4            
     e(149 -150) =     53.15173  eV     2   --> G_3            
     e(149 -150) =     53.15173  eV     2   --> G_4            
     e(151 -152) =     53.97197  eV     2   --> G_3            
     e(151 -152) =     53.97197  eV     2   --> G_4            
     e(153 -154) =     54.33443  eV     2   --> G_3            
     e(153 -154) =     54.33443  eV     2   --> G_4            
     e(155 -156) =     55.08101  eV     2   --> G_3            
     e(155 -156) =     55.08101  eV     2   --> G_4            
     e(157 -158) =     55.95011  eV     2   --> G_3            
     e(157 -158) =     55.95011  eV     2   --> G_4            
     e(159 -160) =     56.13278  eV     2   --> G_3            
     e(159 -160) =     56.13278  eV     2   --> G_4            

 **************************************************************************

 **************************************************************************

                    xk=(   0.00000,   0.00000,   0.25566  )

     double point group D_4h(4/mmm)
     there are 14 classes and  4 irreducible representations
     the character table:

       E     -E    2C4   -2C4   C2    2C2' 2C2'' i     -i    2S4   -2S4   s_h 
                               -C2   -2C2' -2C2'                         -s_h 
G_6+   2.00 -2.00  1.41 -1.41  0.00  0.00  0.00  2.00 -2.00  1.41 -1.41  0.00
G_7+   2.00 -2.00 -1.41  1.41  0.00  0.00  0.00  2.00 -2.00 -1.41  1.41  0.00
G_6-   2.00 -2.00  1.41 -1.41  0.00  0.00  0.00 -2.00  2.00 -1.41  1.41  0.00
G_7-   2.00 -2.00 -1.41  1.41  0.00  0.00  0.00 -2.00  2.00  1.41 -1.41  0.00

        2s_v  2s_d
       -2s_v -2s_d
G_6+   0.00  0.00
G_7+   0.00  0.00
G_6-   0.00  0.00
G_7-   0.00  0.00

     the symmetry operations in each class and the name of the first element:

     E             1
                                                                 
     -E           -1
                                                                 
     2C4           7    8
                                                                 
     -2C4         -7   -8
                                                                 
      C2  -C2      2   -2
                                                                 
      2C2'-2C2'    3   -3    4   -4
                                                                 
     2C2''-2C2'    5   -5   -6    6
                                                                 
     i             9
                                                                 
     -i           -9
                                                                 
     2S4          15   16
                                                                 
     -2S4        -15  -16
                                                                 
      s_h -s_h    10  -10
                                                                 
      2s_v-2s_v   11  -11   12  -12
                                                                 
      2s_d-2s_d   13  -13  -14   14
                                                                 

     Band symmetry, D_4h(4/mmm) double point group:

     e(  1 -  2) =    -11.99511  eV     2   --> G_7-  M_7-     
     e(  3 -  4) =    -11.99294  eV     2   --> G_7+  M_7+     
     e(  5 -  6) =    -11.97794  eV     2   --> G_6+  M_6+     
     e(  7 -  8) =    -11.97101  eV     2   --> G_6-  M_6-     
     e(  9 - 10) =     -9.05110  eV     2   --> G_7-  M_7-     
     e( 11 - 12) =     -9.04949  eV     2   --> G_7+  M_7+     
     e( 13 - 14) =     -9.01484  eV     2   --> G_6+  M_6+     
     e( 15 - 16) =     -8.98198  eV     2   --> G_6-  M_6-     
     e( 17 - 18) =     -8.93078  eV     2   --> G_7-  M_7-     
     e( 19 - 20) =     -8.90146  eV     2   --> G_7+  M_7+     
     e( 21 - 22) =     -0.32033  eV     2   --> G_6+  M_6+     
     e( 23 - 24) =     -0.07115  eV     2   --> G_6-  M_6-     
     e( 25 - 26) =      7.81307  eV     2   --> G_6+  M_6+     
     e( 27 - 28) =      8.43817  eV     2   --> G_7+  M_7+     
     e( 29 - 30) =      8.97248  eV     2   --> G_6+  M_6+     
     e( 31 - 32) =      9.33551  eV     2   --> G_7+  M_7+     
     e( 33 - 34) =      9.51565  eV     2   --> G_6-  M_6-     
     e( 35 - 36) =      9.79977  eV     2   --> G_7+  M_7+     
     e( 37 - 38) =     10.62425  eV     2   --> G_6+  M_6+     
     e( 39 - 40) =     13.24742  eV     2   --> G_6-  M_6-     
     e( 41 - 42) =     14.76399  eV     2   --> G_7-  M_7-     
     e( 43 - 44) =     15.46910  eV     2   --> G_6+  M_6+     
     e( 45 - 46) =     17.90732  eV     2   --> G_7+  M_7+     
     e( 47 - 48) =     18.38907  eV     2   --> G_6+  M_6+     
     e( 49 - 50) =     19.59494  eV     2   --> G_6-  M_6-     
     e( 51 - 52) =     19.81538  eV     2   --> G_7+  M_7+     
     e( 53 - 54) =     20.84874  eV     2   --> G_6+  M_6+     
     e( 55 - 56) =     21.06488  eV     2   --> G_7-  M_7-     
     e( 57 - 58) =     21.91607  eV     2   --> G_6-  M_6-     
     e( 59 - 60) =     22.31044  eV     2   --> G_7-  M_7-     
     e( 61 - 62) =     23.59268  eV     2   --> G_7+  M_7+     
     e( 63 - 64) =     25.12499  eV     2   --> G_6-  M_6-     
     e( 65 - 66) =     25.54311  eV     2   --> G_6+  M_6+     
     e( 67 - 68) =     27.99752  eV     2   --> G_6-  M_6-     
     e( 69 - 70) =     28.47412  eV     2   --> G_7-  M_7-     
     e( 71 - 72) =     28.51190  eV     2   --> G_6-  M_6-     
     e( 73 - 74) =     28.51690  eV     2   --> G_7-  M_7-     
     e( 75 - 76) =     29.47892  eV     2   --> G_6+  M_6+     
     e( 77 - 78) =     29.89068  eV     2   --> G_7+  M_7+     
     e( 79 - 80) =     30.09213  eV     2   --> G_6-  M_6-     
     e( 81 - 82) =     30.25106  eV     2   --> G_7-  M_7-     
     e( 83 - 84) =     31.98747  eV     2   --> G_7-  M_7-     
     e( 85 - 86) =     32.68138  eV     2   --> G_7+  M_7+     
     e( 87 - 88) =     32.90263  eV     2   --> G_6-  M_6-     
     e( 89 - 90) =     32.92462  eV     2   --> G_6+  M_6+     
     e( 91 - 92) =     33.24967  eV     2   --> G_7+  M_7+     
     e( 93 - 94) =     33.56603  eV     2   --> G_6+  M_6+     
     e( 95 - 96) =     33.63618  eV     2   --> G_7-  M_7-     
     e( 97 - 98) =     33.67527  eV     2   --> G_7+  M_7+     
     e( 99 -100) =     36.64018  eV     2   --> G_6+  M_6+     
     e(101 -102) =     37.21741  eV     2   --> G_7+  M_7+     
     e(103 -104) =     37.78064  eV     2   --> G_6-  M_6-     
     e(105 -106) =     38.15600  eV     2   --> G_6-  M_6-     
     e(107 -108) =     38.27426  eV     2   --> G_7-  M_7-     
     e(109 -110) =     38.75928  eV     2   --> G_6+  M_6+     
     e(111 -112) =     39.02866  eV     2   --> G_7+  M_7+     
     e(113 -114) =     41.70591  eV     2   --> G_6+  M_6+     
     e(115 -116) =     41.82295  eV     2   --> G_6+  M_6+     
     e(117 -118) =     41.92000  eV     2   --> G_7+  M_7+     
     e(119 -120) =     43.28027  eV     2   --> G_6-  M_6-     
     e(121 -122) =     45.18750  eV     2   --> G_7+  M_7+     
     e(123 -124) =     45.94087  eV     2   --> G_6-  M_6-     
     e(125 -126) =     45.98780  eV     2   --> G_7-  M_7-     
     e(127 -128) =     46.10648  eV     2   --> G_7-  M_7-     
     e(129 -130) =     46.46073  eV     2   --> G_6+  M_6+     
     e(131 -132) =     48.44504  eV     2   --> G_7+  M_7+     
     e(133 -134) =     48.86510  eV     2   --> G_7-  M_7-     
     e(135 -136) =     49.41841  eV     2   --> G_6-  M_6-     
     e(137 -138) =     49.79930  eV     2   --> G_7-  M_7-     
     e(139 -140) =     50.45011  eV     2   --> G_6+  M_6+     
     e(141 -142) =     51.57228  eV     2   --> G_6-  M_6-     
     e(143 -144) =     52.03839  eV     2   --> G_6+  M_6+     
     e(145 -146) =     52.04691  eV     2   --> G_6-  M_6-     
     e(147 -148) =     52.14774  eV     2   --> G_7+  M_7+     
     e(149 -150) =     52.40784  eV     2   --> G_7-  M_7-     
     e(151 -152) =     54.60460  eV     2   --> G_6-  M_6-     
     e(153 -154) =     54.62437  eV     2   --> G_6+  M_6+     
     e(155 -156) =     55.21918  eV     2   --> G_7+  M_7+     
     e(157 -158) =     55.22804  eV     2   --> G_6+  M_6+     
     e(159 -160) =     56.10206  eV     2   --> G_7-  M_7-     

 **************************************************************************
 
     BANDS        :  16m34.09s CPU  20m10.66s WALL

 
   This run was terminated on:  13:34:33   8Jan2024            

=------------------------------------------------------------------------------=
   JOB DONE.
=------------------------------------------------------------------------------=
