
     Program PWSCF v.7.2 starts on  8Jan2024 at 13: 3:26 

     This program is part of the open-source Quantum ESPRESSO suite
     for quantum simulation of materials; please cite
         "P. Giannozzi et al., J. Phys.:Condens. Matter 21 395502 (2009);
         "P. Giannozzi et al., J. Phys.:Condens. Matter 29 465901 (2017);
         "P. Giannozzi et al., J. Chem. Phys. 152 154105 (2020);
          URL http://www.quantum-espresso.org", 
     in publications or presentations arising from this work. More details at
     http://www.quantum-espresso.org/quote

     Parallel version (MPI), running on     4 processors

     MPI processes distributed on     1 nodes
     9675 MiB available memory on the printing compute node when the environment starts
 
     Waiting for input...
     Reading input from standard input

     Current dimensions of program PWSCF are:
     Max number of different atomic species (ntypx) = 10
     Max number of k-points (npk) =  40000
     Max angular momentum in pseudopotentials (lmaxx) =  4
     file Bi.rel-pz-dn-rrkjus_psl.1.0.0.UPF: wavefunction(s)  5D 5D renormalized
     file Pd.rel-pz-n-rrkjus_psl.1.0.0.UPF: wavefunction(s)  4D 4D renormalized

     Atomic positions and unit cell read from directory:
     ./Bi2Pd/Bi2Pd.save/
     Atomic positions from file used, from input discarded
 
 
     R & G space division:  proc/nbgrp/npool/nimage =       4
     Subspace diagonalization in iterative solution of the eigenvalue problem:
     one sub-group per band group will be used
     custom distributed-memory algorithm (size of sub-group:  2*  2 procs)

 
     Parallelization info
     --------------------
     sticks:   dense  smooth     PW     G-vecs:    dense   smooth      PW
     Min         888     393    116                27174     8061    1307
     Max         889     394    117                27175     8062    1309
     Sum        3553    1573    467               108697    32245    5233
 
     Using Slab Decomposition
 


     bravais-lattice index     =            6
     lattice parameter (alat)  =       6.3999  a.u.
     unit-cell volume          =     512.6613 (a.u.)^3
     number of atoms/cell      =            3
     number of atomic types    =            2
     number of electrons       =        40.00
     number of Kohn-Sham states=          160
     kinetic-energy cutoff     =      60.0000  Ry
     charge density cutoff     =     540.0000  Ry
     Exchange-correlation= LDA
                           (   1   1   0   0   0   0   0)
     Non magnetic calculation with spin-orbit


     celldm(1)=   6.399898  celldm(2)=   0.000000  celldm(3)=   3.911483
     celldm(4)=   0.000000  celldm(5)=   0.000000  celldm(6)=   0.000000

     crystal axes: (cart. coord. in units of alat)
               a(1) = (   0.500000  -0.500000   1.955741 )  
               a(2) = (   0.500000   0.500000   1.955741 )  
               a(3) = (  -0.500000  -0.500000   1.955741 )  

     reciprocal axes: (cart. coord. in units 2 pi/alat)
               b(1) = (  1.000000 -1.000000  0.000000 )  
               b(2) = (  0.000000  1.000000  0.255658 )  
               b(3) = ( -1.000000  0.000000  0.255658 )  


     PseudoPot. # 1 for Bi read from file:
     ~/q-e/pseudo/pslibrary/rel-pz/PSEUDOPOTENTIALS/Bi.rel-pz-dn-rrkjus_psl.1.0.0.UPF
     MD5 check sum: Not computed, couldn't open file
     Pseudo is Ultrasoft + core correction, Zval = 15.0
     Generated using 'atomic' code by A. Dal Corso  v.7.2
     Using radial grid of 1283 points, 10 beta functions with: 
                l(1) =   0
                l(2) =   0
                l(3) =   1
                l(4) =   1
                l(5) =   1
                l(6) =   1
                l(7) =   2
                l(8) =   2
                l(9) =   2
               l(10) =   2
     Q(r) pseudized with 0 coefficients 


     PseudoPot. # 2 for Pd read from file:
     ~/q-e/pseudo/pslibrary/rel-pz/PSEUDOPOTENTIALS/Pd.rel-pz-n-rrkjus_psl.1.0.0.UPF
     MD5 check sum: Not computed, couldn't open file
     Pseudo is Ultrasoft + core correction, Zval = 10.0
     Generated using 'atomic' code by A. Dal Corso  v.7.2
     Using radial grid of 1235 points, 10 beta functions with: 
                l(1) =   0
                l(2) =   0
                l(3) =   1
                l(4) =   1
                l(5) =   1
                l(6) =   1
                l(7) =   2
                l(8) =   2
                l(9) =   2
               l(10) =   2
     Q(r) pseudized with 0 coefficients 


     atomic species   valence    mass     pseudopotential
     Bi               15.00   208.98000     Bi( 1.00)
     Pd               10.00   106.42000     Pd( 1.00)

     16 Sym. Ops., with inversion, found


                                    s                        frac. trans.

      isym =  1     identity                                     

 cryst.   s( 1) = (     1          0          0      )
                  (     0          1          0      )
                  (     0          0          1      )

 cart.    s( 1) = (  1.0000000  0.0000000  0.0000000 )
                  (  0.0000000  1.0000000  0.0000000 )
                  (  0.0000000  0.0000000  1.0000000 )


      isym =  2     180 deg rotation - cart. axis [0,0,1]        

 cryst.   s( 2) = (    -1          1          1      )
                  (     0          0          1      )
                  (     0          1          0      )

 cart.    s( 2) = ( -1.0000000  0.0000000  0.0000000 )
                  (  0.0000000 -1.0000000  0.0000000 )
                  (  0.0000000  0.0000000  1.0000000 )


      isym =  3     180 deg rotation - cart. axis [0,1,0]        

 cryst.   s( 3) = (     0         -1          0      )
                  (    -1          0          0      )
                  (     1         -1         -1      )

 cart.    s( 3) = ( -1.0000000  0.0000000  0.0000000 )
                  (  0.0000000  1.0000000  0.0000000 )
                  (  0.0000000  0.0000000 -1.0000000 )


      isym =  4     180 deg rotation - cart. axis [1,0,0]        

 cryst.   s( 4) = (     0          0         -1      )
                  (     1         -1         -1      )
                  (    -1          0          0      )

 cart.    s( 4) = (  1.0000000  0.0000000  0.0000000 )
                  (  0.0000000 -1.0000000  0.0000000 )
                  (  0.0000000  0.0000000 -1.0000000 )


      isym =  5     180 deg rotation - cart. axis [1,1,0]        

 cryst.   s( 5) = (    -1          0          0      )
                  (     0          0         -1      )
                  (     0         -1          0      )

 cart.    s( 5) = (  0.0000000  1.0000000  0.0000000 )
                  (  1.0000000  0.0000000  0.0000000 )
                  (  0.0000000  0.0000000 -1.0000000 )


      isym =  6     180 deg rotation - cart. axis [1,-1,0]       

 cryst.   s( 6) = (     1         -1         -1      )
                  (     0         -1          0      )
                  (     0          0         -1      )

 cart.    s( 6) = (  0.0000000 -1.0000000  0.0000000 )
                  ( -1.0000000  0.0000000  0.0000000 )
                  (  0.0000000  0.0000000 -1.0000000 )


      isym =  7      90 deg rotation - cart. axis [0,0,-1]       

 cryst.   s( 7) = (     0          0          1      )
                  (     1          0          0      )
                  (    -1          1          1      )

 cart.    s( 7) = (  0.0000000  1.0000000  0.0000000 )
                  ( -1.0000000  0.0000000  0.0000000 )
                  (  0.0000000  0.0000000  1.0000000 )


      isym =  8      90 deg rotation - cart. axis [0,0,1]        

 cryst.   s( 8) = (     0          1          0      )
                  (    -1          1          1      )
                  (     1          0          0      )

 cart.    s( 8) = (  0.0000000 -1.0000000  0.0000000 )
                  (  1.0000000  0.0000000  0.0000000 )
                  (  0.0000000  0.0000000  1.0000000 )


      isym =  9     inversion                                    

 cryst.   s( 9) = (    -1          0          0      )
                  (     0         -1          0      )
                  (     0          0         -1      )

 cart.    s( 9) = ( -1.0000000  0.0000000  0.0000000 )
                  (  0.0000000 -1.0000000  0.0000000 )
                  (  0.0000000  0.0000000 -1.0000000 )


      isym = 10     inv. 180 deg rotation - cart. axis [0,0,1]   

 cryst.   s(10) = (     1         -1         -1      )
                  (     0          0         -1      )
                  (     0         -1          0      )

 cart.    s(10) = (  1.0000000  0.0000000  0.0000000 )
                  (  0.0000000  1.0000000  0.0000000 )
                  (  0.0000000  0.0000000 -1.0000000 )


      isym = 11     inv. 180 deg rotation - cart. axis [0,1,0]   

 cryst.   s(11) = (     0          1          0      )
                  (     1          0          0      )
                  (    -1          1          1      )

 cart.    s(11) = (  1.0000000  0.0000000  0.0000000 )
                  (  0.0000000 -1.0000000  0.0000000 )
                  (  0.0000000  0.0000000  1.0000000 )


      isym = 12     inv. 180 deg rotation - cart. axis [1,0,0]   

 cryst.   s(12) = (     0          0          1      )
                  (    -1          1          1      )
                  (     1          0          0      )

 cart.    s(12) = ( -1.0000000  0.0000000  0.0000000 )
                  (  0.0000000  1.0000000  0.0000000 )
                  (  0.0000000  0.0000000  1.0000000 )


      isym = 13     inv. 180 deg rotation - cart. axis [1,1,0]   

 cryst.   s(13) = (     1          0          0      )
                  (     0          0          1      )
                  (     0          1          0      )

 cart.    s(13) = (  0.0000000 -1.0000000  0.0000000 )
                  ( -1.0000000  0.0000000  0.0000000 )
                  (  0.0000000  0.0000000  1.0000000 )


      isym = 14     inv. 180 deg rotation - cart. axis [1,-1,0]  

 cryst.   s(14) = (    -1          1          1      )
                  (     0          1          0      )
                  (     0          0          1      )

 cart.    s(14) = (  0.0000000  1.0000000  0.0000000 )
                  (  1.0000000  0.0000000  0.0000000 )
                  (  0.0000000  0.0000000  1.0000000 )


      isym = 15     inv.  90 deg rotation - cart. axis [0,0,-1]  

 cryst.   s(15) = (     0          0         -1      )
                  (    -1          0          0      )
                  (     1         -1         -1      )

 cart.    s(15) = (  0.0000000 -1.0000000  0.0000000 )
                  (  1.0000000  0.0000000  0.0000000 )
                  (  0.0000000  0.0000000 -1.0000000 )


      isym = 16     inv.  90 deg rotation - cart. axis [0,0,1]   

 cryst.   s(16) = (     0         -1          0      )
                  (     1         -1         -1      )
                  (    -1          0          0      )

 cart.    s(16) = (  0.0000000  1.0000000  0.0000000 )
                  ( -1.0000000  0.0000000  0.0000000 )
                  (  0.0000000  0.0000000 -1.0000000 )


     double point group D_4h(4/mmm)
     there are 14 classes and  4 irreducible representations
     the character table:

       E     -E    2C4   -2C4   C2    2C2' 2C2'' i     -i    2S4   -2S4   s_h 
                               -C2   -2C2' -2C2'                         -s_h 
G_6+   2.00 -2.00  1.41 -1.41  0.00  0.00  0.00  2.00 -2.00  1.41 -1.41  0.00
G_7+   2.00 -2.00 -1.41  1.41  0.00  0.00  0.00  2.00 -2.00 -1.41  1.41  0.00
G_6-   2.00 -2.00  1.41 -1.41  0.00  0.00  0.00 -2.00  2.00 -1.41  1.41  0.00
G_7-   2.00 -2.00 -1.41  1.41  0.00  0.00  0.00 -2.00  2.00  1.41 -1.41  0.00

        2s_v  2s_d
       -2s_v -2s_d
G_6+   0.00  0.00
G_7+   0.00  0.00
G_6-   0.00  0.00
G_7-   0.00  0.00

     the symmetry operations in each class and the name of the first element:

     E             1
          identity                                               
     -E           -1
          identity E                                             
     2C4           7    8
           90 deg rotation - cart. axis [0,0,-1]                 
     -2C4         -7   -8
           90 deg rotation - cart. axis [0,0,-1] E               
      C2  -C2      2   -2
          180 deg rotation - cart. axis [0,0,1]                  
      2C2'-2C2'    3   -3    4   -4
          180 deg rotation - cart. axis [0,1,0]                  
     2C2''-2C2'    5   -5   -6    6
          180 deg rotation - cart. axis [1,1,0]                  
     i             9
          inversion                                              
     -i           -9
          inversion E                                            
     2S4          15   16
          inv.  90 deg rotation - cart. axis [0,0,-1]            
     -2S4        -15  -16
          inv.  90 deg rotation - cart. axis [0,0,-1] E          
      s_h -s_h    10  -10
          inv. 180 deg rotation - cart. axis [0,0,1]             
      2s_v-2s_v   11  -11   12  -12
          inv. 180 deg rotation - cart. axis [0,1,0]             
      2s_d-2s_d   13  -13  -14   14
          inv. 180 deg rotation - cart. axis [1,1,0]             

   Cartesian axes

     site n.     atom                  positions (alat units)
         1        Bi     tau(   1) = (   0.5000000   0.5000000   0.5175674  )
         2        Bi     tau(   2) = (   0.0000000   0.0000000   1.4381739  )
         3        Pd     tau(   3) = (   0.0000000   0.0000000   0.0000000  )

   Crystallographic axes

     site n.     atom                  positions (cryst. coord.)
         1        Bi     tau(   1) = (  0.0000000  0.6323200 -0.3676800  )
         2        Bi     tau(   2) = (  0.0000000  0.3676800  0.3676800  )
         3        Pd     tau(   3) = (  0.0000000  0.0000000  0.0000000  )

     number of k points=    51
                       cart. coord. in units 2pi/alat
        k(    1) = (   0.0000000   0.0000000   0.0000000), wk =   0.0196078
        k(    2) = (   0.0000000   0.0000000   0.0255658), wk =   0.0196078
        k(    3) = (   0.0000000   0.0000000   0.0511315), wk =   0.0196078
        k(    4) = (   0.0000000   0.0000000   0.0766973), wk =   0.0196078
        k(    5) = (   0.0000000   0.0000000   0.1022630), wk =   0.0196078
        k(    6) = (   0.0000000   0.0000000   0.1278288), wk =   0.0196078
        k(    7) = (   0.0000000   0.0000000   0.1533945), wk =   0.0196078
        k(    8) = (   0.0000000   0.0000000   0.1789603), wk =   0.0196078
        k(    9) = (   0.0000000   0.0000000   0.2045260), wk =   0.0196078
        k(   10) = (   0.0000000   0.0000000   0.2300918), wk =   0.0196078
        k(   11) = (   0.0000000   0.0000000   0.2556575), wk =   0.0196078
        k(   12) = (   0.0500000   0.0000000   0.2428747), wk =   0.0196078
        k(   13) = (   0.1000000   0.0000000   0.2300918), wk =   0.0196078
        k(   14) = (   0.1500000   0.0000000   0.2173089), wk =   0.0196078
        k(   15) = (   0.2000000   0.0000000   0.2045260), wk =   0.0196078
        k(   16) = (   0.2500000   0.0000000   0.1917431), wk =   0.0196078
        k(   17) = (   0.3000000   0.0000000   0.1789603), wk =   0.0196078
        k(   18) = (   0.3500000   0.0000000   0.1661774), wk =   0.0196078
        k(   19) = (   0.4000000   0.0000000   0.1533945), wk =   0.0196078
        k(   20) = (   0.4500000   0.0000000   0.1406116), wk =   0.0196078
        k(   21) = (   0.5000000   0.0000000   0.1278288), wk =   0.0196078
        k(   22) = (   0.5000000  -0.0500000   0.1278288), wk =   0.0196078
        k(   23) = (   0.5000000  -0.1000000   0.1278288), wk =   0.0196078
        k(   24) = (   0.5000000  -0.1500000   0.1278288), wk =   0.0196078
        k(   25) = (   0.5000000  -0.2000000   0.1278288), wk =   0.0196078
        k(   26) = (   0.5000000  -0.2500000   0.1278288), wk =   0.0196078
        k(   27) = (   0.5000000  -0.3000000   0.1278288), wk =   0.0196078
        k(   28) = (   0.5000000  -0.3500000   0.1278288), wk =   0.0196078
        k(   29) = (   0.5000000  -0.4000000   0.1278288), wk =   0.0196078
        k(   30) = (   0.5000000  -0.4500000   0.1278288), wk =   0.0196078
        k(   31) = (   0.5000000  -0.5000000   0.1278288), wk =   0.0196078
        k(   32) = (   0.5000000  -0.5000000   0.1150459), wk =   0.0196078
        k(   33) = (   0.5000000  -0.5000000   0.1022630), wk =   0.0196078
        k(   34) = (   0.5000000  -0.5000000   0.0894801), wk =   0.0196078
        k(   35) = (   0.5000000  -0.5000000   0.0766973), wk =   0.0196078
        k(   36) = (   0.5000000  -0.5000000   0.0639144), wk =   0.0196078
        k(   37) = (   0.5000000  -0.5000000   0.0511315), wk =   0.0196078
        k(   38) = (   0.5000000  -0.5000000   0.0383486), wk =   0.0196078
        k(   39) = (   0.5000000  -0.5000000   0.0255658), wk =   0.0196078
        k(   40) = (   0.5000000  -0.5000000   0.0127829), wk =   0.0196078
        k(   41) = (   0.5000000  -0.5000000   0.0000000), wk =   0.0196078
        k(   42) = (   0.4500000  -0.4500000   0.0255658), wk =   0.0196078
        k(   43) = (   0.4000000  -0.4000000   0.0511315), wk =   0.0196078
        k(   44) = (   0.3500000  -0.3500000   0.0766973), wk =   0.0196078
        k(   45) = (   0.3000000  -0.3000000   0.1022630), wk =   0.0196078
        k(   46) = (   0.2500000  -0.2500000   0.1278288), wk =   0.0196078
        k(   47) = (   0.2000000  -0.2000000   0.1533945), wk =   0.0196078
        k(   48) = (   0.1500000  -0.1500000   0.1789603), wk =   0.0196078
        k(   49) = (   0.1000000  -0.1000000   0.2045260), wk =   0.0196078
        k(   50) = (   0.0500000  -0.0500000   0.2300918), wk =   0.0196078
        k(   51) = (   0.0000000   0.0000000   0.2556575), wk =   0.0196078

                       cryst. coord.
        k(    1) = (   0.0000000   0.0000000   0.0000000), wk =   0.0196078
        k(    2) = (   0.0500000   0.0500000   0.0500000), wk =   0.0196078
        k(    3) = (   0.1000000   0.1000000   0.1000000), wk =   0.0196078
        k(    4) = (   0.1500000   0.1500000   0.1500000), wk =   0.0196078
        k(    5) = (   0.2000000   0.2000000   0.2000000), wk =   0.0196078
        k(    6) = (   0.2500000   0.2500000   0.2500000), wk =   0.0196078
        k(    7) = (   0.3000000   0.3000000   0.3000000), wk =   0.0196078
        k(    8) = (   0.3500000   0.3500000   0.3500000), wk =   0.0196078
        k(    9) = (   0.4000000   0.4000000   0.4000000), wk =   0.0196078
        k(   10) = (   0.4500000   0.4500000   0.4500000), wk =   0.0196078
        k(   11) = (   0.5000000   0.5000000   0.5000000), wk =   0.0196078
        k(   12) = (   0.5000000   0.5000000   0.4500000), wk =   0.0196078
        k(   13) = (   0.5000000   0.5000000   0.4000000), wk =   0.0196078
        k(   14) = (   0.5000000   0.5000000   0.3500000), wk =   0.0196078
        k(   15) = (   0.5000000   0.5000000   0.3000000), wk =   0.0196078
        k(   16) = (   0.5000000   0.5000000   0.2500000), wk =   0.0196078
        k(   17) = (   0.5000000   0.5000000   0.2000000), wk =   0.0196078
        k(   18) = (   0.5000000   0.5000000   0.1500000), wk =   0.0196078
        k(   19) = (   0.5000000   0.5000000   0.1000000), wk =   0.0196078
        k(   20) = (   0.5000000   0.5000000   0.0500000), wk =   0.0196078
        k(   21) = (   0.5000000   0.5000000   0.0000000), wk =   0.0196078
        k(   22) = (   0.5250000   0.4750000   0.0250000), wk =   0.0196078
        k(   23) = (   0.5500000   0.4500000   0.0500000), wk =   0.0196078
        k(   24) = (   0.5750000   0.4250000   0.0750000), wk =   0.0196078
        k(   25) = (   0.6000000   0.4000000   0.1000000), wk =   0.0196078
        k(   26) = (   0.6250000   0.3750000   0.1250000), wk =   0.0196078
        k(   27) = (   0.6500000   0.3500000   0.1500000), wk =   0.0196078
        k(   28) = (   0.6750000   0.3250000   0.1750000), wk =   0.0196078
        k(   29) = (   0.7000000   0.3000000   0.2000000), wk =   0.0196078
        k(   30) = (   0.7250000   0.2750000   0.2250000), wk =   0.0196078
        k(   31) = (   0.7500000   0.2500000   0.2500000), wk =   0.0196078
        k(   32) = (   0.7250000   0.2250000   0.2250000), wk =   0.0196078
        k(   33) = (   0.7000000   0.2000000   0.2000000), wk =   0.0196078
        k(   34) = (   0.6750000   0.1750000   0.1750000), wk =   0.0196078
        k(   35) = (   0.6500000   0.1500000   0.1500000), wk =   0.0196078
        k(   36) = (   0.6250000   0.1250000   0.1250000), wk =   0.0196078
        k(   37) = (   0.6000000   0.1000000   0.1000000), wk =   0.0196078
        k(   38) = (   0.5750000   0.0750000   0.0750000), wk =   0.0196078
        k(   39) = (   0.5500000   0.0500000   0.0500000), wk =   0.0196078
        k(   40) = (   0.5250000   0.0250000   0.0250000), wk =   0.0196078
        k(   41) = (   0.5000000   0.0000000   0.0000000), wk =   0.0196078
        k(   42) = (   0.5000000   0.0500000   0.0500000), wk =   0.0196078
        k(   43) = (   0.5000000   0.1000000   0.1000000), wk =   0.0196078
        k(   44) = (   0.5000000   0.1500000   0.1500000), wk =   0.0196078
        k(   45) = (   0.5000000   0.2000000   0.2000000), wk =   0.0196078
        k(   46) = (   0.5000000   0.2500000   0.2500000), wk =   0.0196078
        k(   47) = (   0.5000000   0.3000000   0.3000000), wk =   0.0196078
        k(   48) = (   0.5000000   0.3500000   0.3500000), wk =   0.0196078
        k(   49) = (   0.5000000   0.4000000   0.4000000), wk =   0.0196078
        k(   50) = (   0.5000000   0.4500000   0.4500000), wk =   0.0196078
        k(   51) = (   0.5000000   0.5000000   0.5000000), wk =   0.0196078

     Dense  grid:   108697 G-vectors     FFT dimensions: ( 100, 100, 100)

     Smooth grid:    32245 G-vectors     FFT dimensions: (  72,  72,  72)

     Dynamical RAM for                 wfc:       4.91 MB

     Dynamical RAM for     wfc (w. buffer):       4.91 MB

     Dynamical RAM for           str. fact:       0.83 MB

     Dynamical RAM for           local pot:       0.00 MB

     Dynamical RAM for          nlocal pot:       1.57 MB

     Dynamical RAM for                qrad:       9.76 MB

     Dynamical RAM for          rho,v,vnew:      27.86 MB

     Dynamical RAM for           G-vectors:       1.62 MB

     Dynamical RAM for          h,s,v(r/c):       1.17 MB

     Dynamical RAM for          <psi|beta>:       0.50 MB

     Dynamical RAM for                 psi:       9.82 MB

     Dynamical RAM for                hpsi:       9.82 MB

     Dynamical RAM for                spsi:       9.82 MB

     Dynamical RAM for      wfcinit/wfcrot:       7.96 MB

     Dynamical RAM for           addusdens:     253.76 MB

     Estimated static dynamical RAM per process >      63.05 MB

     Estimated max dynamical RAM per process >     316.82 MB

     Estimated total dynamical RAM >       1.24 GB

     The potential is recalculated from file :
     ./Bi2Pd/Bi2Pd.save/charge-density

     Starting wfcs are   54 randomized atomic wfcs +  106 random wfcs

     Band Structure Calculation
     Davidson diagonalization with overlap

     Computing kpt #:     1  of    51
     total cpu time spent up to now is       15.0 secs

     Computing kpt #:     2  of    51
     total cpu time spent up to now is       29.1 secs

     Computing kpt #:     3  of    51
     total cpu time spent up to now is       44.1 secs

     Computing kpt #:     4  of    51
     total cpu time spent up to now is       57.5 secs

     Computing kpt #:     5  of    51
     total cpu time spent up to now is       69.8 secs

     Computing kpt #:     6  of    51
     total cpu time spent up to now is       83.0 secs

     Computing kpt #:     7  of    51
     total cpu time spent up to now is       95.1 secs

     Computing kpt #:     8  of    51
     total cpu time spent up to now is      107.5 secs

     Computing kpt #:     9  of    51
     total cpu time spent up to now is      119.6 secs

     Computing kpt #:    10  of    51
     total cpu time spent up to now is      131.7 secs

     Computing kpt #:    11  of    51
     total cpu time spent up to now is      143.9 secs

     Computing kpt #:    12  of    51
     total cpu time spent up to now is      157.4 secs

     Computing kpt #:    13  of    51
     total cpu time spent up to now is      169.7 secs

     Computing kpt #:    14  of    51
     total cpu time spent up to now is      182.6 secs

     Computing kpt #:    15  of    51
     total cpu time spent up to now is      194.8 secs

     Computing kpt #:    16  of    51
     total cpu time spent up to now is      207.1 secs

     Computing kpt #:    17  of    51
     total cpu time spent up to now is      219.8 secs

     Computing kpt #:    18  of    51
     total cpu time spent up to now is      233.4 secs

     Computing kpt #:    19  of    51
     total cpu time spent up to now is      245.8 secs

     Computing kpt #:    20  of    51
     total cpu time spent up to now is      259.2 secs

     Computing kpt #:    21  of    51
     total cpu time spent up to now is      274.0 secs

     Computing kpt #:    22  of    51
     total cpu time spent up to now is      287.5 secs

     Computing kpt #:    23  of    51
     total cpu time spent up to now is      300.9 secs

     Computing kpt #:    24  of    51
     total cpu time spent up to now is      314.4 secs

     Computing kpt #:    25  of    51
     total cpu time spent up to now is      328.5 secs

     Computing kpt #:    26  of    51
     total cpu time spent up to now is      342.5 secs

     Computing kpt #:    27  of    51
     total cpu time spent up to now is      355.1 secs

     Computing kpt #:    28  of    51
     total cpu time spent up to now is      367.8 secs

     Computing kpt #:    29  of    51
     total cpu time spent up to now is      380.2 secs

     Computing kpt #:    30  of    51
     total cpu time spent up to now is      392.7 secs

     Computing kpt #:    31  of    51
     total cpu time spent up to now is      405.3 secs

     Computing kpt #:    32  of    51
     total cpu time spent up to now is      417.6 secs

     Computing kpt #:    33  of    51
     total cpu time spent up to now is      430.0 secs

     Computing kpt #:    34  of    51
     total cpu time spent up to now is      442.4 secs

     Computing kpt #:    35  of    51
     total cpu time spent up to now is      454.9 secs

     Computing kpt #:    36  of    51
     total cpu time spent up to now is      467.4 secs

     Computing kpt #:    37  of    51
     total cpu time spent up to now is      479.8 secs

     Computing kpt #:    38  of    51
     total cpu time spent up to now is      492.4 secs

     Computing kpt #:    39  of    51
     total cpu time spent up to now is      504.7 secs

     Computing kpt #:    40  of    51
     total cpu time spent up to now is      517.1 secs

     Computing kpt #:    41  of    51
     total cpu time spent up to now is      529.4 secs

     Computing kpt #:    42  of    51
     total cpu time spent up to now is      541.8 secs

     Computing kpt #:    43  of    51
     total cpu time spent up to now is      554.3 secs

     Computing kpt #:    44  of    51
     total cpu time spent up to now is      568.0 secs

     Computing kpt #:    45  of    51
     total cpu time spent up to now is      580.5 secs

     Computing kpt #:    46  of    51
     total cpu time spent up to now is      592.8 secs

     Computing kpt #:    47  of    51
     total cpu time spent up to now is      605.1 secs

     Computing kpt #:    48  of    51
     total cpu time spent up to now is      617.3 secs

     Computing kpt #:    49  of    51
     total cpu time spent up to now is      629.5 secs

     Computing kpt #:    50  of    51
     total cpu time spent up to now is      642.9 secs

     Computing kpt #:    51  of    51
     total cpu time spent up to now is      655.0 secs

     ethr =  2.50E-11,  avg # of iterations = 40.5

     total cpu time spent up to now is      655.0 secs

     End of band structure calculation

          k = 0.0000 0.0000 0.0000 (  4023 PWs)   bands (ev):

   -11.9952 -11.9952 -11.9929 -11.9929 -11.9881 -11.9881 -11.9612 -11.9612
    -9.0506  -9.0506  -9.0489  -9.0489  -9.0242  -9.0242  -8.9743  -8.9743
    -8.9202  -8.9202  -8.9136  -8.9136  -0.8878  -0.8878   0.8359   0.8359
     6.2095   6.2095   8.4378   8.4378   8.8986   8.8986   9.3160   9.3160
     9.7280   9.7280   9.7978   9.7978  12.4282  12.4282  14.5963  14.5963
    15.0102  15.0102  15.5038  15.5038  16.5243  16.5243  16.8053  16.8053
    18.5839  18.5839  19.6187  19.6187  20.9005  20.9005  21.3231  21.3231
    23.3122  23.3122  24.1907  24.1907  24.5176  24.5176  24.5293  24.5293
    25.2430  25.2430  26.1642  26.1642  26.4500  26.4500  26.6666  26.6666
    27.9295  27.9295  28.4904  28.4904  30.7690  30.7690  31.4035  31.4035
    32.1167  32.1167  32.6611  32.6611  32.7003  32.7003  32.9927  32.9927
    33.9767  33.9767  34.5297  34.5297  34.9973  34.9973  35.1919  35.1919
    35.5434  35.5434  36.9811  36.9811  37.3747  37.3747  37.4620  37.4620
    37.4894  37.4894  37.4985  37.4985  37.7257  37.7257  37.9785  37.9785
    38.3344  38.3344  41.3346  41.3346  42.4655  42.4655  42.8055  42.8055
    42.8220  42.8220  43.6490  43.6490  45.6442  45.6442  45.7345  45.7345
    45.9025  45.9025  49.4282  49.4282  50.1885  50.1885  50.5893  50.5893
    50.8675  50.8675  51.0161  51.0161  51.8145  51.8145  52.0514  52.0514
    52.3693  52.3693  53.1068  53.1068  54.6846  54.6846  55.4143  55.4143
    55.8452  55.8452  56.3206  56.3206  56.6151  56.6151  56.7662  56.7662

     occupation numbers 
     1.0000   1.0000   1.0000   1.0000   1.0000   1.0000   1.0000   1.0000
     1.0000   1.0000   1.0000   1.0000   1.0000   1.0000   1.0000   1.0000
     1.0000   1.0000   1.0000   1.0000   1.0000   1.0000   1.0000   1.0000
     1.0000   1.0000   1.0000   1.0000   1.0000   1.0000   1.0000   1.0000
     1.0000   1.0000   1.0000   1.0000   1.0000   1.0000   1.0000   1.0000
     0.0000   0.0000   0.0000   0.0000   0.0000   0.0000   0.0000   0.0000
     0.0000   0.0000   0.0000   0.0000   0.0000   0.0000   0.0000   0.0000
     0.0000   0.0000   0.0000   0.0000   0.0000   0.0000   0.0000   0.0000
     0.0000   0.0000   0.0000   0.0000   0.0000   0.0000   0.0000   0.0000
     0.0000   0.0000   0.0000   0.0000   0.0000   0.0000   0.0000   0.0000
     0.0000   0.0000   0.0000   0.0000   0.0000   0.0000   0.0000   0.0000
     0.0000   0.0000   0.0000   0.0000   0.0000   0.0000   0.0000   0.0000
     0.0000   0.0000   0.0000   0.0000   0.0000   0.0000   0.0000   0.0000
     0.0000   0.0000   0.0000   0.0000   0.0000   0.0000   0.0000   0.0000
     0.0000   0.0000   0.0000   0.0000   0.0000   0.0000   0.0000   0.0000
     0.0000   0.0000   0.0000   0.0000   0.0000   0.0000   0.0000   0.0000
     0.0000   0.0000   0.0000   0.0000   0.0000   0.0000   0.0000   0.0000
     0.0000   0.0000   0.0000   0.0000   0.0000   0.0000   0.0000   0.0000
     0.0000   0.0000   0.0000   0.0000   0.0000   0.0000   0.0000   0.0000
     0.0000   0.0000   0.0000   0.0000   0.0000   0.0000   0.0000   0.0000

          k = 0.0000 0.0000 0.0256 (  4007 PWs)   bands (ev):

   -11.9950 -11.9950 -11.9928 -11.9928 -11.9878 -11.9878 -11.9613 -11.9613
    -9.0504  -9.0504  -9.0488  -9.0488  -9.0239  -9.0239  -8.9744  -8.9744
    -8.9207  -8.9207  -8.9128  -8.9128  -0.8807  -0.8807   0.8193   0.8193
     6.2395   6.2395   8.4378   8.4378   8.8994   8.8994   9.3164   9.3164
     9.7272   9.7272   9.7978   9.7978  12.3922  12.3922  14.5871  14.5871
    14.9415  14.9415  15.4682  15.4682  16.5724  16.5724  16.9132  16.9132
    18.5819  18.5819  19.6227  19.6227  20.9499  20.9499  21.3180  21.3180
    23.2361  23.2361  24.1677  24.1677  24.3494  24.3494  24.4351  24.4351
    25.3744  25.3744  26.3003  26.3003  26.5416  26.5416  26.7168  26.7168
    27.9444  27.9444  28.5096  28.5096  30.7275  30.7275  31.3638  31.3638
    32.1127  32.1127  32.4567  32.4567  32.6706  32.6706  33.0021  33.0021
    33.9727  33.9727  34.5245  34.5245  35.0453  35.0453  35.2468  35.2468
    35.7486  35.7486  36.6369  36.6369  36.8192  36.8192  37.1345  37.1345
    37.5271  37.5271  37.8077  37.8077  38.2542  38.2542  38.3421  38.3421
    38.3648  38.3648  41.0262  41.0262  42.3785  42.3785  42.7457  42.7457
    43.1366  43.1366  43.6281  43.6281  45.6828  45.6828  45.7811  45.7811
    45.9426  45.9426  49.4963  49.4963  50.2069  50.2069  50.5283  50.5283
    50.8620  50.8620  50.9630  50.9630  51.8359  51.8359  52.0988  52.0988
    52.2339  52.2339  52.9918  52.9918  54.2629  54.2629  55.8329  55.8329
    55.8615  55.8615  56.2927  56.2927  56.5731  56.5731  56.7533  56.7533

     occupation numbers 
     1.0000   1.0000   1.0000   1.0000   1.0000   1.0000   1.0000   1.0000
     1.0000   1.0000   1.0000   1.0000   1.0000   1.0000   1.0000   1.0000
     1.0000   1.0000   1.0000   1.0000   1.0000   1.0000   1.0000   1.0000
     1.0000   1.0000   1.0000   1.0000   1.0000   1.0000   1.0000   1.0000
     1.0000   1.0000   1.0000   1.0000   1.0000   1.0000   1.0000   1.0000
     0.0000   0.0000   0.0000   0.0000   0.0000   0.0000   0.0000   0.0000
     0.0000   0.0000   0.0000   0.0000   0.0000   0.0000   0.0000   0.0000
     0.0000   0.0000   0.0000   0.0000   0.0000   0.0000   0.0000   0.0000
     0.0000   0.0000   0.0000   0.0000   0.0000   0.0000   0.0000   0.0000
     0.0000   0.0000   0.0000   0.0000   0.0000   0.0000   0.0000   0.0000
     0.0000   0.0000   0.0000   0.0000   0.0000   0.0000   0.0000   0.0000
     0.0000   0.0000   0.0000   0.0000   0.0000   0.0000   0.0000   0.0000
     0.0000   0.0000   0.0000   0.0000   0.0000   0.0000   0.0000   0.0000
     0.0000   0.0000   0.0000   0.0000   0.0000   0.0000   0.0000   0.0000
     0.0000   0.0000   0.0000   0.0000   0.0000   0.0000   0.0000   0.0000
     0.0000   0.0000   0.0000   0.0000   0.0000   0.0000   0.0000   0.0000
     0.0000   0.0000   0.0000   0.0000   0.0000   0.0000   0.0000   0.0000
     0.0000   0.0000   0.0000   0.0000   0.0000   0.0000   0.0000   0.0000
     0.0000   0.0000   0.0000   0.0000   0.0000   0.0000   0.0000   0.0000
     0.0000   0.0000   0.0000   0.0000   0.0000   0.0000   0.0000   0.0000

          k = 0.0000 0.0000 0.0511 (  4011 PWs)   bands (ev):

   -11.9950 -11.9950 -11.9928 -11.9928 -11.9874 -11.9874 -11.9618 -11.9618
    -9.0505  -9.0505  -9.0489  -9.0489  -9.0234  -9.0234  -8.9749  -8.9749
    -8.9222  -8.9222  -8.9112  -8.9112  -0.8592  -0.8592   0.7707   0.7707
     6.3277   6.3277   8.4379   8.4379   8.9017   8.9017   9.3178   9.3178
     9.7246   9.7246   9.7980   9.7980  12.2864  12.2864  14.4862  14.4862
    14.8648  14.8648  15.3785  15.3785  16.6989  16.6989  17.1771  17.1771
    18.5778  18.5778  19.6346  19.6346  21.0963  21.0963  21.3029  21.3029
    23.0404  23.0404  24.0026  24.0026  24.0992  24.0992  24.2039  24.2039
    25.6516  25.6516  26.6327  26.6327  26.7521  26.7521  26.8773  26.8773
    27.9914  27.9914  28.5690  28.5690  30.6020  30.6020  31.2520  31.2520
    31.9127  31.9127  32.1013  32.1013  32.6658  32.6658  33.0294  33.0294
    33.9608  33.9608  34.5054  34.5054  35.1793  35.1793  35.4023  35.4023
    36.0613  36.0613  36.1599  36.1599  36.2938  36.2938  36.6230  36.6230
    37.5063  37.5063  38.2845  38.2845  38.4712  38.4712  38.7907  38.7907
    39.0304  39.0304  40.4742  40.4742  42.1762  42.1762  42.5356  42.5356
    43.3368  43.3368  43.9745  43.9745  45.7932  45.7932  45.9007  45.9007
    46.0478  46.0478  49.6766  49.6766  50.2262  50.2262  50.4117  50.4117
    50.7114  50.7114  50.9841  50.9841  51.8557  51.8557  51.8784  51.8784
    52.1988  52.1988  52.6860  52.6860  53.6128  53.6128  55.8964  55.8964
    56.1704  56.1704  56.4781  56.4781  56.4782  56.4782  56.7130  56.7130

     occupation numbers 
     1.0000   1.0000   1.0000   1.0000   1.0000   1.0000   1.0000   1.0000
     1.0000   1.0000   1.0000   1.0000   1.0000   1.0000   1.0000   1.0000
     1.0000   1.0000   1.0000   1.0000   1.0000   1.0000   1.0000   1.0000
     1.0000   1.0000   1.0000   1.0000   1.0000   1.0000   1.0000   1.0000
     1.0000   1.0000   1.0000   1.0000   1.0000   1.0000   1.0000   1.0000
     0.0000   0.0000   0.0000   0.0000   0.0000   0.0000   0.0000   0.0000
     0.0000   0.0000   0.0000   0.0000   0.0000   0.0000   0.0000   0.0000
     0.0000   0.0000   0.0000   0.0000   0.0000   0.0000   0.0000   0.0000
     0.0000   0.0000   0.0000   0.0000   0.0000   0.0000   0.0000   0.0000
     0.0000   0.0000   0.0000   0.0000   0.0000   0.0000   0.0000   0.0000
     0.0000   0.0000   0.0000   0.0000   0.0000   0.0000   0.0000   0.0000
     0.0000   0.0000   0.0000   0.0000   0.0000   0.0000   0.0000   0.0000
     0.0000   0.0000   0.0000   0.0000   0.0000   0.0000   0.0000   0.0000
     0.0000   0.0000   0.0000   0.0000   0.0000   0.0000   0.0000   0.0000
     0.0000   0.0000   0.0000   0.0000   0.0000   0.0000   0.0000   0.0000
     0.0000   0.0000   0.0000   0.0000   0.0000   0.0000   0.0000   0.0000
     0.0000   0.0000   0.0000   0.0000   0.0000   0.0000   0.0000   0.0000
     0.0000   0.0000   0.0000   0.0000   0.0000   0.0000   0.0000   0.0000
     0.0000   0.0000   0.0000   0.0000   0.0000   0.0000   0.0000   0.0000
     0.0000   0.0000   0.0000   0.0000   0.0000   0.0000   0.0000   0.0000

          k = 0.0000 0.0000 0.0767 (  4003 PWs)   bands (ev):

   -11.9950 -11.9950 -11.9928 -11.9928 -11.9867 -11.9867 -11.9623 -11.9623
    -9.0505  -9.0505  -9.0489  -9.0489  -9.0225  -9.0225  -8.9754  -8.9754
    -8.9239  -8.9239  -8.9092  -8.9092  -0.8237  -0.8237   0.6941   0.6941
     6.4689   6.4689   8.4379   8.4379   8.9054   8.9054   9.3200   9.3200
     9.7198   9.7198   9.7982   9.7982  12.1165  12.1165  14.2511  14.2511
    14.9061  14.9061  15.2646  15.2646  16.8722  16.8722  17.5051  17.5051
    18.5765  18.5765  19.6536  19.6536  21.2785  21.2785  21.3313  21.3313
    22.7865  22.7865  23.6113  23.6113  23.8757  23.8757  24.0335  24.0335
    25.9869  25.9869  26.9801  26.9801  27.0454  27.0454  27.1536  27.1536
    28.0803  28.0803  28.6736  28.6736  30.3756  30.3756  31.0858  31.0858
    31.2740  31.2740  32.0846  32.0846  32.6615  32.6615  33.0719  33.0719
    33.9404  33.9404  34.4617  34.4617  35.3239  35.3239  35.5242  35.5242
    35.6205  35.6205  35.6898  35.6898  36.1240  36.1240  36.7335  36.7335
    37.4706  37.4706  38.5204  38.5204  38.8174  38.8174  39.2803  39.2803
    39.7868  39.7868  40.0233  40.0233  41.8923  41.8923  42.2336  42.2336
    43.1426  43.1426  44.7336  44.7336  45.9665  45.9665  46.0476  46.0476
    46.1803  46.1803  49.8801  49.8801  50.0751  50.0751  50.4800  50.4800
    50.4818  50.4818  51.0865  51.0865  51.2963  51.2963  51.9046  51.9046
    52.2920  52.2920  52.3007  52.3007  52.9438  52.9438  55.9007  55.9007
    55.9394  55.9394  56.3853  56.3853  56.6395  56.6395  56.7572  56.7572

     occupation numbers 
     1.0000   1.0000   1.0000   1.0000   1.0000   1.0000   1.0000   1.0000
     1.0000   1.0000   1.0000   1.0000   1.0000   1.0000   1.0000   1.0000
     1.0000   1.0000   1.0000   1.0000   1.0000   1.0000   1.0000   1.0000
     1.0000   1.0000   1.0000   1.0000   1.0000   1.0000   1.0000   1.0000
     1.0000   1.0000   1.0000   1.0000   1.0000   1.0000   1.0000   1.0000
     0.0000   0.0000   0.0000   0.0000   0.0000   0.0000   0.0000   0.0000
     0.0000   0.0000   0.0000   0.0000   0.0000   0.0000   0.0000   0.0000
     0.0000   0.0000   0.0000   0.0000   0.0000   0.0000   0.0000   0.0000
     0.0000   0.0000   0.0000   0.0000   0.0000   0.0000   0.0000   0.0000
     0.0000   0.0000   0.0000   0.0000   0.0000   0.0000   0.0000   0.0000
     0.0000   0.0000   0.0000   0.0000   0.0000   0.0000   0.0000   0.0000
     0.0000   0.0000   0.0000   0.0000   0.0000   0.0000   0.0000   0.0000
     0.0000   0.0000   0.0000   0.0000   0.0000   0.0000   0.0000   0.0000
     0.0000   0.0000   0.0000   0.0000   0.0000   0.0000   0.0000   0.0000
     0.0000   0.0000   0.0000   0.0000   0.0000   0.0000   0.0000   0.0000
     0.0000   0.0000   0.0000   0.0000   0.0000   0.0000   0.0000   0.0000
     0.0000   0.0000   0.0000   0.0000   0.0000   0.0000   0.0000   0.0000
     0.0000   0.0000   0.0000   0.0000   0.0000   0.0000   0.0000   0.0000
     0.0000   0.0000   0.0000   0.0000   0.0000   0.0000   0.0000   0.0000
     0.0000   0.0000   0.0000   0.0000   0.0000   0.0000   0.0000   0.0000

          k = 0.0000 0.0000 0.1023 (  4015 PWs)   bands (ev):

   -11.9952 -11.9952 -11.9929 -11.9929 -11.9857 -11.9857 -11.9635 -11.9635
    -9.0508  -9.0508  -9.0491  -9.0491  -9.0214  -9.0214  -8.9765  -8.9765
    -8.9258  -8.9258  -8.9074  -8.9074  -0.7745  -0.7745   0.5950   0.5950
     6.6552   6.6552   8.4379   8.4379   8.9106   8.9106   9.3227   9.3227
     9.7117   9.7117   9.7984   9.7984  11.8918  11.8918  13.9903  13.9903
    15.0019  15.0019  15.1472  15.1472  17.0684  17.0684  17.8364  17.8364
    18.5891  18.5891  19.6785  19.6785  21.2463  21.2463  21.6259  21.6259
    22.5363  22.5363  23.2235  23.2235  23.5510  23.5510  23.9333  23.9333
    26.3445  26.3445  27.2277  27.2277  27.4526  27.4526  27.4676  27.4676
    28.2378  28.2378  28.8314  28.8314  29.9697  29.9697  30.7271  30.7271
    30.8858  30.8858  32.0649  32.0649  32.6600  32.6600  33.1256  33.1256
    33.9105  33.9105  34.3698  34.3698  34.9239  34.9239  35.0601  35.0601
    35.4997  35.4997  35.7772  35.7772  36.0362  36.0362  37.1018  37.1018
    37.4258  37.4258  38.4635  38.4635  39.2407  39.2407  39.7277  39.7277
    39.9747  39.9747  40.5661  40.5661  41.5739  41.5739  41.8885  41.8885
    42.8846  42.8846  45.5447  45.5447  46.1743  46.1743  46.1902  46.1902
    46.3045  46.3045  49.7874  49.7874  50.0160  50.0160  50.2523  50.2523
    50.6127  50.6127  50.6836  50.6836  51.2357  51.2357  51.8957  51.8957
    52.0318  52.0318  52.2746  52.2746  52.3559  52.3559  55.5022  55.5022
    55.9801  55.9801  56.2612  56.2612  56.5196  56.5196  56.6572  56.6572

     occupation numbers 
     1.0000   1.0000   1.0000   1.0000   1.0000   1.0000   1.0000   1.0000
     1.0000   1.0000   1.0000   1.0000   1.0000   1.0000   1.0000   1.0000
     1.0000   1.0000   1.0000   1.0000   1.0000   1.0000   1.0000   1.0000
     1.0000   1.0000   1.0000   1.0000   1.0000   1.0000   1.0000   1.0000
     1.0000   1.0000   1.0000   1.0000   1.0000   1.0000   1.0000   1.0000
     0.0000   0.0000   0.0000   0.0000   0.0000   0.0000   0.0000   0.0000
     0.0000   0.0000   0.0000   0.0000   0.0000   0.0000   0.0000   0.0000
     0.0000   0.0000   0.0000   0.0000   0.0000   0.0000   0.0000   0.0000
     0.0000   0.0000   0.0000   0.0000   0.0000   0.0000   0.0000   0.0000
     0.0000   0.0000   0.0000   0.0000   0.0000   0.0000   0.0000   0.0000
     0.0000   0.0000   0.0000   0.0000   0.0000   0.0000   0.0000   0.0000
     0.0000   0.0000   0.0000   0.0000   0.0000   0.0000   0.0000   0.0000
     0.0000   0.0000   0.0000   0.0000   0.0000   0.0000   0.0000   0.0000
     0.0000   0.0000   0.0000   0.0000   0.0000   0.0000   0.0000   0.0000
     0.0000   0.0000   0.0000   0.0000   0.0000   0.0000   0.0000   0.0000
     0.0000   0.0000   0.0000   0.0000   0.0000   0.0000   0.0000   0.0000
     0.0000   0.0000   0.0000   0.0000   0.0000   0.0000   0.0000   0.0000
     0.0000   0.0000   0.0000   0.0000   0.0000   0.0000   0.0000   0.0000
     0.0000   0.0000   0.0000   0.0000   0.0000   0.0000   0.0000   0.0000
     0.0000   0.0000   0.0000   0.0000   0.0000   0.0000   0.0000   0.0000

          k = 0.0000 0.0000 0.1278 (  4023 PWs)   bands (ev):

   -11.9953 -11.9953 -11.9928 -11.9928 -11.9845 -11.9845 -11.9649 -11.9649
    -9.0509  -9.0509  -9.0492  -9.0492  -9.0200  -9.0200  -8.9778  -8.9778
    -8.9274  -8.9274  -8.9057  -8.9057  -0.7121  -0.7121   0.4794   0.4794
     6.8761   6.8761   8.4380   8.4380   8.9172   8.9172   9.3257   9.3257
     9.6982   9.6982   9.7987   9.7987  11.6263  11.6263  13.7571  13.7571
    15.0379  15.0379  15.1139  15.1139  17.2712  17.2712  18.1205  18.1205
    18.6448  18.6448  19.7075  19.7075  21.2084  21.2084  21.8268  21.8268
    22.4480  22.4480  22.8701  22.8701  23.2295  23.2295  23.8382  23.8382
    26.6946  26.6946  27.4973  27.4973  27.7619  27.7619  27.7763  27.7763
    28.5101  28.5101  29.0490  29.0490  29.3466  29.3466  30.3699  30.3699
    30.6705  30.6705  32.0446  32.0446  32.6650  32.6650  33.1851  33.1851
    33.8670  33.8670  34.1813  34.1813  34.3723  34.3723  34.6919  34.6919
    35.0188  35.0188  36.0971  36.0971  36.3735  36.3735  37.2796  37.2796
    37.3769  37.3769  38.1986  38.1986  39.6186  39.6186  40.0818  40.0818
    40.3643  40.3643  41.2983  41.2983  41.3626  41.3626  41.5687  41.5687
    42.6129  42.6129  46.2440  46.2440  46.3373  46.3373  46.3500  46.3500
    46.5106  46.5106  49.4993  49.4993  49.8513  49.8513  49.8802  49.8802
    50.0640  50.0640  50.9105  50.9105  51.4146  51.4146  51.6334  51.6334
    51.9296  51.9296  52.0431  52.0431  52.3718  52.3718  54.9975  54.9975
    56.0156  56.0156  56.0517  56.0517  56.3345  56.3345  56.5359  56.5359

     occupation numbers 
     1.0000   1.0000   1.0000   1.0000   1.0000   1.0000   1.0000   1.0000
     1.0000   1.0000   1.0000   1.0000   1.0000   1.0000   1.0000   1.0000
     1.0000   1.0000   1.0000   1.0000   1.0000   1.0000   1.0000   1.0000
     1.0000   1.0000   1.0000   1.0000   1.0000   1.0000   1.0000   1.0000
     1.0000   1.0000   1.0000   1.0000   1.0000   1.0000   1.0000   1.0000
     0.0000   0.0000   0.0000   0.0000   0.0000   0.0000   0.0000   0.0000
     0.0000   0.0000   0.0000   0.0000   0.0000   0.0000   0.0000   0.0000
     0.0000   0.0000   0.0000   0.0000   0.0000   0.0000   0.0000   0.0000
     0.0000   0.0000   0.0000   0.0000   0.0000   0.0000   0.0000   0.0000
     0.0000   0.0000   0.0000   0.0000   0.0000   0.0000   0.0000   0.0000
     0.0000   0.0000   0.0000   0.0000   0.0000   0.0000   0.0000   0.0000
     0.0000   0.0000   0.0000   0.0000   0.0000   0.0000   0.0000   0.0000
     0.0000   0.0000   0.0000   0.0000   0.0000   0.0000   0.0000   0.0000
     0.0000   0.0000   0.0000   0.0000   0.0000   0.0000   0.0000   0.0000
     0.0000   0.0000   0.0000   0.0000   0.0000   0.0000   0.0000   0.0000
     0.0000   0.0000   0.0000   0.0000   0.0000   0.0000   0.0000   0.0000
     0.0000   0.0000   0.0000   0.0000   0.0000   0.0000   0.0000   0.0000
     0.0000   0.0000   0.0000   0.0000   0.0000   0.0000   0.0000   0.0000
     0.0000   0.0000   0.0000   0.0000   0.0000   0.0000   0.0000   0.0000
     0.0000   0.0000   0.0000   0.0000   0.0000   0.0000   0.0000   0.0000

          k = 0.0000 0.0000 0.1534 (  4015 PWs)   bands (ev):

   -11.9952 -11.9952 -11.9928 -11.9928 -11.9830 -11.9830 -11.9662 -11.9662
    -9.0510  -9.0510  -9.0492  -9.0492  -9.0185  -9.0185  -8.9790  -8.9790
    -8.9286  -8.9286  -8.9041  -8.9041  -0.6375  -0.6375   0.3536   0.3536
     7.1184   7.1184   8.4381   8.4381   8.9255   8.9255   9.3287   9.3287
     9.6765   9.6765   9.7991   9.7991  11.3410  11.3410  13.5676  13.5676
    14.9429  14.9429  15.2252  15.2252  17.4670  17.4670  18.2924  18.2924
    18.7993  18.7993  19.7383  19.7383  21.1679  21.1679  21.6895  21.6895
    22.4993  22.4993  22.8349  22.8349  22.9330  22.9330  23.7538  23.7538
    26.9928  26.9928  27.7742  27.7742  27.9985  27.9985  28.0130  28.0130
    28.6400  28.6400  28.9040  28.9040  29.3209  29.3209  30.1109  30.1109
    30.4560  30.4560  32.0257  32.0257  32.6815  32.6815  33.2387  33.2387
    33.7656  33.7656  33.8714  33.8714  33.9301  33.9301  34.4129  34.4129
    34.5442  34.5442  36.4672  36.4672  36.7688  36.7688  37.2200  37.2200
    37.3295  37.3295  38.0276  38.0276  39.7849  39.7849  40.2110  40.2110
    40.9187  40.9187  41.2501  41.2501  41.4084  41.4084  42.1760  42.1760
    42.3552  42.3552  46.2398  46.2398  46.3442  46.3442  46.8434  46.8434
    47.0721  47.0721  49.0443  49.0443  49.1327  49.1327  49.6720  49.6720
    49.9283  49.9283  50.9866  50.9866  51.1522  51.1522  51.6398  51.6398
    51.8775  51.8775  52.3613  52.3613  52.4469  52.4469  54.4072  54.4072
    55.7410  55.7410  56.0427  56.0427  56.0819  56.0819  56.3832  56.3832

     occupation numbers 
     1.0000   1.0000   1.0000   1.0000   1.0000   1.0000   1.0000   1.0000
     1.0000   1.0000   1.0000   1.0000   1.0000   1.0000   1.0000   1.0000
     1.0000   1.0000   1.0000   1.0000   1.0000   1.0000   1.0000   1.0000
     1.0000   1.0000   1.0000   1.0000   1.0000   1.0000   1.0000   1.0000
     1.0000   1.0000   1.0000   1.0000   1.0000   1.0000   1.0000   1.0000
     0.0000   0.0000   0.0000   0.0000   0.0000   0.0000   0.0000   0.0000
     0.0000   0.0000   0.0000   0.0000   0.0000   0.0000   0.0000   0.0000
     0.0000   0.0000   0.0000   0.0000   0.0000   0.0000   0.0000   0.0000
     0.0000   0.0000   0.0000   0.0000   0.0000   0.0000   0.0000   0.0000
     0.0000   0.0000   0.0000   0.0000   0.0000   0.0000   0.0000   0.0000
     0.0000   0.0000   0.0000   0.0000   0.0000   0.0000   0.0000   0.0000
     0.0000   0.0000   0.0000   0.0000   0.0000   0.0000   0.0000   0.0000
     0.0000   0.0000   0.0000   0.0000   0.0000   0.0000   0.0000   0.0000
     0.0000   0.0000   0.0000   0.0000   0.0000   0.0000   0.0000   0.0000
     0.0000   0.0000   0.0000   0.0000   0.0000   0.0000   0.0000   0.0000
     0.0000   0.0000   0.0000   0.0000   0.0000   0.0000   0.0000   0.0000
     0.0000   0.0000   0.0000   0.0000   0.0000   0.0000   0.0000   0.0000
     0.0000   0.0000   0.0000   0.0000   0.0000   0.0000   0.0000   0.0000
     0.0000   0.0000   0.0000   0.0000   0.0000   0.0000   0.0000   0.0000
     0.0000   0.0000   0.0000   0.0000   0.0000   0.0000   0.0000   0.0000

          k = 0.0000 0.0000 0.1790 (  4019 PWs)   bands (ev):

   -11.9952 -11.9952 -11.9929 -11.9929 -11.9815 -11.9815 -11.9678 -11.9678
    -9.0510  -9.0510  -9.0494  -9.0494  -9.0172  -9.0172  -8.9803  -8.9803
    -8.9296  -8.9296  -8.9031  -8.9031  -0.5521  -0.5521   0.2237   0.2237
     7.3643   7.3643   8.4381   8.4381   8.9362   8.9362   9.3314   9.3314
     9.6424   9.6424   9.7993   9.7993  11.0648  11.0648  13.4243  13.4243
    14.8661  14.8661  15.3244  15.3244  17.6424  17.6424  18.3573  18.3573
    19.0421  19.0421  19.7679  19.7679  21.1287  21.1287  21.4260  21.4260
    22.2589  22.2589  22.6780  22.6780  23.3473  23.3473  23.6848  23.6848
    27.1038  27.1038  28.0382  28.0382  28.0653  28.0653  28.1759  28.1759
    28.2167  28.2167  29.3057  29.3057  29.6200  29.6200  29.8993  29.8993
    30.2593  30.2593  32.0097  32.0097  32.7159  32.7159  33.2172  33.2172
    33.4869  33.4869  33.5230  33.5230  33.7869  33.7869  34.1240  34.1240
    34.1632  34.1632  36.8581  36.8581  37.0112  37.0112  37.1790  37.1790
    37.2997  37.2997  38.0186  38.0186  39.6289  39.6289  40.0164  40.0164
    41.2425  41.2425  41.5072  41.5072  41.7592  41.7592  42.1425  42.1425
    42.9995  42.9995  46.1692  46.1692  46.2890  46.2890  47.2276  47.2276
    47.4298  47.4298  48.2111  48.2111  48.9689  48.9689  49.5486  49.5486
    49.8474  49.8474  50.3754  50.3754  51.4164  51.4164  51.8216  51.8216
    51.8582  51.8582  52.3378  52.3378  52.9746  52.9746  53.7759  53.7759
    55.3702  55.3702  55.7833  55.7833  56.0701  56.0701  56.1751  56.1751

     occupation numbers 
     1.0000   1.0000   1.0000   1.0000   1.0000   1.0000   1.0000   1.0000
     1.0000   1.0000   1.0000   1.0000   1.0000   1.0000   1.0000   1.0000
     1.0000   1.0000   1.0000   1.0000   1.0000   1.0000   1.0000   1.0000
     1.0000   1.0000   1.0000   1.0000   1.0000   1.0000   1.0000   1.0000
     1.0000   1.0000   1.0000   1.0000   1.0000   1.0000   1.0000   1.0000
     0.0000   0.0000   0.0000   0.0000   0.0000   0.0000   0.0000   0.0000
     0.0000   0.0000   0.0000   0.0000   0.0000   0.0000   0.0000   0.0000
     0.0000   0.0000   0.0000   0.0000   0.0000   0.0000   0.0000   0.0000
     0.0000   0.0000   0.0000   0.0000   0.0000   0.0000   0.0000   0.0000
     0.0000   0.0000   0.0000   0.0000   0.0000   0.0000   0.0000   0.0000
     0.0000   0.0000   0.0000   0.0000   0.0000   0.0000   0.0000   0.0000
     0.0000   0.0000   0.0000   0.0000   0.0000   0.0000   0.0000   0.0000
     0.0000   0.0000   0.0000   0.0000   0.0000   0.0000   0.0000   0.0000
     0.0000   0.0000   0.0000   0.0000   0.0000   0.0000   0.0000   0.0000
     0.0000   0.0000   0.0000   0.0000   0.0000   0.0000   0.0000   0.0000
     0.0000   0.0000   0.0000   0.0000   0.0000   0.0000   0.0000   0.0000
     0.0000   0.0000   0.0000   0.0000   0.0000   0.0000   0.0000   0.0000
     0.0000   0.0000   0.0000   0.0000   0.0000   0.0000   0.0000   0.0000
     0.0000   0.0000   0.0000   0.0000   0.0000   0.0000   0.0000   0.0000
     0.0000   0.0000   0.0000   0.0000   0.0000   0.0000   0.0000   0.0000

          k = 0.0000 0.0000 0.2045 (  4023 PWs)   bands (ev):

   -11.9952 -11.9952 -11.9930 -11.9930 -11.9799 -11.9799 -11.9694 -11.9694
    -9.0511  -9.0511  -9.0495  -9.0495  -9.0160  -9.0160  -8.9813  -8.9813
    -8.9303  -8.9303  -8.9022  -8.9022  -0.4592  -0.4592   0.0966   0.0966
     7.5878   7.5878   8.4381   8.4381   8.9499   8.9499   9.3336   9.3336
     9.5939   9.5939   9.7996   9.7996  10.8323  10.8323  13.3250  13.3250
    14.8098  14.8098  15.4023  15.4023  17.7832  17.7832  18.3792  18.3792
    19.2982  19.2982  19.7927  19.7927  21.0955  21.0955  21.1574  21.1574
    22.0704  22.0704  22.4800  22.4800  23.6340  23.6340  23.9551  23.9551
    26.7270  26.7270  27.9122  27.9122  28.2633  28.2633  28.3306  28.3306
    28.3741  28.3741  29.5880  29.5880  29.8054  29.8054  29.8840  29.8840
    30.1158  30.1158  31.9976  31.9976  32.7746  32.7746  32.9760  32.9760
    33.2175  33.2175  33.4188  33.4188  33.6643  33.6643  33.8446  33.8446
    33.9041  33.9041  36.8045  36.8045  37.2440  37.2440  37.2637  37.2637
    37.6347  37.6347  38.0621  38.0621  39.3001  39.3001  39.6494  39.6494
    41.4847  41.4847  41.7048  41.7048  41.9362  41.9362  42.4783  42.4783
    43.8281  43.8281  46.0653  46.0653  46.2047  46.2047  47.1383  47.1383
    47.3632  47.3632  47.6586  47.6586  49.3320  49.3320  49.5627  49.5627
    49.7593  49.7593  49.8390  49.8390  51.6393  51.6393  51.8063  51.8063
    52.0432  52.0432  52.3302  52.3302  52.9617  52.9617  53.7014  53.7014
    55.0074  55.0074  55.5027  55.5027  55.8848  55.8848  56.0876  56.0876

     occupation numbers 
     1.0000   1.0000   1.0000   1.0000   1.0000   1.0000   1.0000   1.0000
     1.0000   1.0000   1.0000   1.0000   1.0000   1.0000   1.0000   1.0000
     1.0000   1.0000   1.0000   1.0000   1.0000   1.0000   1.0000   1.0000
     1.0000   1.0000   1.0000   1.0000   1.0000   1.0000   1.0000   1.0000
     1.0000   1.0000   1.0000   1.0000   1.0000   1.0000   1.0000   1.0000
     0.0000   0.0000   0.0000   0.0000   0.0000   0.0000   0.0000   0.0000
     0.0000   0.0000   0.0000   0.0000   0.0000   0.0000   0.0000   0.0000
     0.0000   0.0000   0.0000   0.0000   0.0000   0.0000   0.0000   0.0000
     0.0000   0.0000   0.0000   0.0000   0.0000   0.0000   0.0000   0.0000
     0.0000   0.0000   0.0000   0.0000   0.0000   0.0000   0.0000   0.0000
     0.0000   0.0000   0.0000   0.0000   0.0000   0.0000   0.0000   0.0000
     0.0000   0.0000   0.0000   0.0000   0.0000   0.0000   0.0000   0.0000
     0.0000   0.0000   0.0000   0.0000   0.0000   0.0000   0.0000   0.0000
     0.0000   0.0000   0.0000   0.0000   0.0000   0.0000   0.0000   0.0000
     0.0000   0.0000   0.0000   0.0000   0.0000   0.0000   0.0000   0.0000
     0.0000   0.0000   0.0000   0.0000   0.0000   0.0000   0.0000   0.0000
     0.0000   0.0000   0.0000   0.0000   0.0000   0.0000   0.0000   0.0000
     0.0000   0.0000   0.0000   0.0000   0.0000   0.0000   0.0000   0.0000
     0.0000   0.0000   0.0000   0.0000   0.0000   0.0000   0.0000   0.0000
     0.0000   0.0000   0.0000   0.0000   0.0000   0.0000   0.0000   0.0000

          k = 0.0000 0.0000 0.2301 (  3998 PWs)   bands (ev):

   -11.9950 -11.9950 -11.9929 -11.9929 -11.9784 -11.9784 -11.9704 -11.9704
    -9.0510  -9.0510  -9.0494  -9.0494  -9.0151  -9.0151  -8.9817  -8.9817
    -8.9305  -8.9305  -8.9015  -8.9015  -0.3687  -0.3687  -0.0154  -0.0154
     7.7515   7.7515   8.4382   8.4382   8.9649   8.9649   9.3350   9.3350
     9.5410   9.5410   9.7997   9.7997  10.6779  10.6779  13.2666  13.2666
    14.7755  14.7755  15.4520  15.4520  17.8752  17.8752  18.3871  18.3871
    19.5076  19.5076  19.8095  19.8095  20.9393  20.9393  21.0729  21.0729
    21.9549  21.9549  22.3539  22.3539  23.6031  23.6031  24.6055  24.6055
    26.0746  26.0746  27.9673  27.9673  28.4183  28.4183  28.4588  28.4588
    28.4790  28.4790  29.5261  29.5261  29.9224  29.9224  29.9990  29.9990
    30.1787  30.1787  31.9900  31.9900  32.7605  32.7605  32.8526  32.8526
    33.0056  33.0056  33.3211  33.3211  33.6050  33.6050  33.6714  33.6714
    33.7317  33.7317  36.6811  36.6811  37.2245  37.2245  37.6166  37.6166
    38.0440  38.0440  38.1138  38.1138  38.9489  38.9489  39.2558  39.2558
    41.6572  41.6572  41.8418  41.8418  41.8619  41.8619  43.0416  43.0416
    44.6392  44.6392  45.9755  45.9755  46.1304  46.1304  46.5451  46.5451
    46.6765  46.6765  48.1075  48.1075  49.2341  49.2341  49.4183  49.4183
    49.8026  49.8026  50.0909  50.0909  51.6451  51.6451  51.9458  51.9458
    52.1325  52.1325  52.3571  52.3571  52.3728  52.3728  54.2516  54.2516
    54.7309  54.7309  55.2962  55.2962  55.5112  55.5112  56.0984  56.0984

     occupation numbers 
     1.0000   1.0000   1.0000   1.0000   1.0000   1.0000   1.0000   1.0000
     1.0000   1.0000   1.0000   1.0000   1.0000   1.0000   1.0000   1.0000
     1.0000   1.0000   1.0000   1.0000   1.0000   1.0000   1.0000   1.0000
     1.0000   1.0000   1.0000   1.0000   1.0000   1.0000   1.0000   1.0000
     1.0000   1.0000   1.0000   1.0000   1.0000   1.0000   1.0000   1.0000
     0.0000   0.0000   0.0000   0.0000   0.0000   0.0000   0.0000   0.0000
     0.0000   0.0000   0.0000   0.0000   0.0000   0.0000   0.0000   0.0000
     0.0000   0.0000   0.0000   0.0000   0.0000   0.0000   0.0000   0.0000
     0.0000   0.0000   0.0000   0.0000   0.0000   0.0000   0.0000   0.0000
     0.0000   0.0000   0.0000   0.0000   0.0000   0.0000   0.0000   0.0000
     0.0000   0.0000   0.0000   0.0000   0.0000   0.0000   0.0000   0.0000
     0.0000   0.0000   0.0000   0.0000   0.0000   0.0000   0.0000   0.0000
     0.0000   0.0000   0.0000   0.0000   0.0000   0.0000   0.0000   0.0000
     0.0000   0.0000   0.0000   0.0000   0.0000   0.0000   0.0000   0.0000
     0.0000   0.0000   0.0000   0.0000   0.0000   0.0000   0.0000   0.0000
     0.0000   0.0000   0.0000   0.0000   0.0000   0.0000   0.0000   0.0000
     0.0000   0.0000   0.0000   0.0000   0.0000   0.0000   0.0000   0.0000
     0.0000   0.0000   0.0000   0.0000   0.0000   0.0000   0.0000   0.0000
     0.0000   0.0000   0.0000   0.0000   0.0000   0.0000   0.0000   0.0000
     0.0000   0.0000   0.0000   0.0000   0.0000   0.0000   0.0000   0.0000

          k = 0.0000 0.0000 0.2557 (  4006 PWs)   bands (ev):

   -11.9951 -11.9951 -11.9929 -11.9929 -11.9779 -11.9779 -11.9710 -11.9710
    -9.0511  -9.0511  -9.0495  -9.0495  -9.0148  -9.0148  -8.9820  -8.9820
    -8.9308  -8.9308  -8.9015  -8.9015  -0.3203  -0.3203  -0.0711  -0.0711
     7.8131   7.8131   8.4382   8.4382   8.9725   8.9725   9.3355   9.3355
     9.5157   9.5157   9.7998   9.7998  10.6243  10.6243  13.2474  13.2474
    14.7640  14.7640  15.4691  15.4691  17.9073  17.9073  18.3891  18.3891
    19.5949  19.5949  19.8154  19.8154  20.8487  20.8487  21.0649  21.0649
    21.9161  21.9161  22.3104  22.3104  23.5927  23.5927  25.1250  25.1250
    25.5431  25.5431  27.9975  27.9975  28.4741  28.4741  28.5119  28.5119
    28.5169  28.5169  29.4789  29.4789  29.8907  29.8907  30.0921  30.0921
    30.2511  30.2511  31.9875  31.9875  32.6814  32.6814  32.9026  32.9026
    32.9246  32.9246  33.2497  33.2497  33.5660  33.5660  33.6362  33.6362
    33.6753  33.6753  36.6402  36.6402  37.2174  37.2174  37.7806  37.7806
    38.1560  38.1560  38.2743  38.2743  38.7593  38.7593  39.0287  39.0287
    41.7059  41.7059  41.8229  41.8229  41.9200  41.9200  43.2803  43.2803
    45.1875  45.1875  45.9409  45.9409  45.9878  45.9878  46.1065  46.1065
    46.4607  46.4607  48.4450  48.4450  48.8651  48.8651  49.4184  49.4184
    49.7993  49.7993  50.4501  50.4501  51.5723  51.5723  52.0384  52.0384
    52.0469  52.0469  52.1477  52.1477  52.4078  52.4078  54.6046  54.6046
    54.6244  54.6244  55.2192  55.2192  55.2280  55.2280  56.1021  56.1021

     occupation numbers 
     1.0000   1.0000   1.0000   1.0000   1.0000   1.0000   1.0000   1.0000
     1.0000   1.0000   1.0000   1.0000   1.0000   1.0000   1.0000   1.0000
     1.0000   1.0000   1.0000   1.0000   1.0000   1.0000   1.0000   1.0000
     1.0000   1.0000   1.0000   1.0000   1.0000   1.0000   1.0000   1.0000
     1.0000   1.0000   1.0000   1.0000   1.0000   1.0000   1.0000   1.0000
     0.0000   0.0000   0.0000   0.0000   0.0000   0.0000   0.0000   0.0000
     0.0000   0.0000   0.0000   0.0000   0.0000   0.0000   0.0000   0.0000
     0.0000   0.0000   0.0000   0.0000   0.0000   0.0000   0.0000   0.0000
     0.0000   0.0000   0.0000   0.0000   0.0000   0.0000   0.0000   0.0000
     0.0000   0.0000   0.0000   0.0000   0.0000   0.0000   0.0000   0.0000
     0.0000   0.0000   0.0000   0.0000   0.0000   0.0000   0.0000   0.0000
     0.0000   0.0000   0.0000   0.0000   0.0000   0.0000   0.0000   0.0000
     0.0000   0.0000   0.0000   0.0000   0.0000   0.0000   0.0000   0.0000
     0.0000   0.0000   0.0000   0.0000   0.0000   0.0000   0.0000   0.0000
     0.0000   0.0000   0.0000   0.0000   0.0000   0.0000   0.0000   0.0000
     0.0000   0.0000   0.0000   0.0000   0.0000   0.0000   0.0000   0.0000
     0.0000   0.0000   0.0000   0.0000   0.0000   0.0000   0.0000   0.0000
     0.0000   0.0000   0.0000   0.0000   0.0000   0.0000   0.0000   0.0000
     0.0000   0.0000   0.0000   0.0000   0.0000   0.0000   0.0000   0.0000
     0.0000   0.0000   0.0000   0.0000   0.0000   0.0000   0.0000   0.0000

          k = 0.0500 0.0000 0.2429 (  3999 PWs)   bands (ev):

   -11.9944 -11.9944 -11.9920 -11.9920 -11.9778 -11.9778 -11.9707 -11.9707
    -9.0496  -9.0496  -9.0475  -9.0475  -9.0142  -9.0142  -8.9813  -8.9813
    -8.9319  -8.9319  -8.9025  -8.9025  -0.3054  -0.3054  -0.0291  -0.0291
     7.8221   7.8221   8.4447   8.4447   8.9223   8.9223   9.2512   9.2512
     9.6724   9.6724   9.7769   9.7769  10.6168  10.6168  13.1668  13.1668
    14.6248  14.6248  15.3223  15.3223  17.5596  17.5596  18.5592  18.5592
    19.8726  19.8726  19.9561  19.9561  20.4872  20.4872  21.3166  21.3166
    22.0480  22.0480  22.4101  22.4101  23.9550  23.9550  24.9335  24.9335
    25.7464  25.7464  27.8112  27.8112  28.3243  28.3243  28.4453  28.4453
    28.4828  28.4828  29.1477  29.1477  29.4591  29.4591  29.8232  29.8232
    29.9582  29.9582  32.3808  32.3808  32.8938  32.8938  33.0420  33.0420
    33.3156  33.3156  33.4838  33.4838  33.5610  33.5610  33.8064  33.8064
    33.9576  33.9576  36.6333  36.6333  36.7995  36.7995  37.2882  37.2882
    37.8842  37.8842  38.6073  38.6073  39.0974  39.0974  39.7319  39.7319
    41.6098  41.6098  41.8603  41.8603  42.1583  42.1583  43.3115  43.3115
    44.7217  44.7217  45.8672  45.8672  45.9757  45.9757  46.3992  46.3992
    46.8005  46.8005  48.2862  48.2862  48.8784  48.8784  49.2047  49.2047
    49.7535  49.7535  50.0868  50.0868  51.3194  51.3194  51.8300  51.8300
    52.0633  52.0633  52.3108  52.3108  52.7555  52.7555  53.7931  53.7931
    54.9708  54.9708  55.1912  55.1912  55.3715  55.3715  56.2549  56.2549

     occupation numbers 
     1.0000   1.0000   1.0000   1.0000   1.0000   1.0000   1.0000   1.0000
     1.0000   1.0000   1.0000   1.0000   1.0000   1.0000   1.0000   1.0000
     1.0000   1.0000   1.0000   1.0000   1.0000   1.0000   1.0000   1.0000
     1.0000   1.0000   1.0000   1.0000   1.0000   1.0000   1.0000   1.0000
     1.0000   1.0000   1.0000   1.0000   1.0000   1.0000   1.0000   1.0000
     0.0000   0.0000   0.0000   0.0000   0.0000   0.0000   0.0000   0.0000
     0.0000   0.0000   0.0000   0.0000   0.0000   0.0000   0.0000   0.0000
     0.0000   0.0000   0.0000   0.0000   0.0000   0.0000   0.0000   0.0000
     0.0000   0.0000   0.0000   0.0000   0.0000   0.0000   0.0000   0.0000
     0.0000   0.0000   0.0000   0.0000   0.0000   0.0000   0.0000   0.0000
     0.0000   0.0000   0.0000   0.0000   0.0000   0.0000   0.0000   0.0000
     0.0000   0.0000   0.0000   0.0000   0.0000   0.0000   0.0000   0.0000
     0.0000   0.0000   0.0000   0.0000   0.0000   0.0000   0.0000   0.0000
     0.0000   0.0000   0.0000   0.0000   0.0000   0.0000   0.0000   0.0000
     0.0000   0.0000   0.0000   0.0000   0.0000   0.0000   0.0000   0.0000
     0.0000   0.0000   0.0000   0.0000   0.0000   0.0000   0.0000   0.0000
     0.0000   0.0000   0.0000   0.0000   0.0000   0.0000   0.0000   0.0000
     0.0000   0.0000   0.0000   0.0000   0.0000   0.0000   0.0000   0.0000
     0.0000   0.0000   0.0000   0.0000   0.0000   0.0000   0.0000   0.0000
     0.0000   0.0000   0.0000   0.0000   0.0000   0.0000   0.0000   0.0000

          k = 0.1000 0.0000 0.2301 (  4010 PWs)   bands (ev):

   -11.9927 -11.9927 -11.9900 -11.9900 -11.9775 -11.9775 -11.9700 -11.9700
    -9.0453  -9.0453  -9.0426  -9.0426  -9.0121  -9.0121  -8.9794  -8.9794
    -8.9353  -8.9353  -8.9061  -8.9061  -0.2539  -0.2539   0.0886   0.0886
     7.8457   7.8457   8.4610   8.4610   8.7954   8.7954   9.2060   9.2060
     9.7120   9.7120   9.8739   9.8739  10.6125  10.6125  12.8767  12.8767
    14.4716  14.4716  14.8294  14.8294  17.1071  17.1071  18.6974  18.6974
    19.6444  19.6444  20.3001  20.3001  20.6885  20.6885  22.0541  22.0541
    22.2169  22.2169  22.6294  22.6294  24.4899  24.4899  24.9647  24.9647
    26.0327  26.0327  27.3068  27.3068  27.8682  27.8682  28.2264  28.2264
    28.2977  28.2977  28.4973  28.4973  28.7475  28.7475  29.2454  29.2454
    29.5490  29.5490  32.8037  32.8037  33.2956  33.2956  33.3747  33.3747
    33.4891  33.4891  33.9857  33.9857  34.1792  34.1792  34.4346  34.4346
    34.7353  34.7353  35.9228  35.9228  36.2020  36.2020  37.0073  37.0073
    38.0472  38.0472  39.1517  39.1517  39.7234  39.7234  40.6200  40.6200
    41.3080  41.3080  41.8932  41.8932  42.9637  42.9637  43.3555  43.3555
    44.1980  44.1980  45.5040  45.5040  45.8732  45.8732  46.7970  46.7970
    47.5537  47.5537  48.1239  48.1239  48.6126  48.6126  48.8117  48.8117
    49.1408  49.1408  50.0201  50.0201  50.2928  50.2928  51.6049  51.6049
    52.0166  52.0166  52.4607  52.4607  52.7037  52.7037  53.7600  53.7600
    54.6824  54.6824  54.8692  54.8692  55.7801  55.7801  56.3376  56.3376

     occupation numbers 
     1.0000   1.0000   1.0000   1.0000   1.0000   1.0000   1.0000   1.0000
     1.0000   1.0000   1.0000   1.0000   1.0000   1.0000   1.0000   1.0000
     1.0000   1.0000   1.0000   1.0000   1.0000   1.0000   1.0000   1.0000
     1.0000   1.0000   1.0000   1.0000   1.0000   1.0000   1.0000   1.0000
     1.0000   1.0000   1.0000   1.0000   1.0000   1.0000   1.0000   1.0000
     0.0000   0.0000   0.0000   0.0000   0.0000   0.0000   0.0000   0.0000
     0.0000   0.0000   0.0000   0.0000   0.0000   0.0000   0.0000   0.0000
     0.0000   0.0000   0.0000   0.0000   0.0000   0.0000   0.0000   0.0000
     0.0000   0.0000   0.0000   0.0000   0.0000   0.0000   0.0000   0.0000
     0.0000   0.0000   0.0000   0.0000   0.0000   0.0000   0.0000   0.0000
     0.0000   0.0000   0.0000   0.0000   0.0000   0.0000   0.0000   0.0000
     0.0000   0.0000   0.0000   0.0000   0.0000   0.0000   0.0000   0.0000
     0.0000   0.0000   0.0000   0.0000   0.0000   0.0000   0.0000   0.0000
     0.0000   0.0000   0.0000   0.0000   0.0000   0.0000   0.0000   0.0000
     0.0000   0.0000   0.0000   0.0000   0.0000   0.0000   0.0000   0.0000
     0.0000   0.0000   0.0000   0.0000   0.0000   0.0000   0.0000   0.0000
     0.0000   0.0000   0.0000   0.0000   0.0000   0.0000   0.0000   0.0000
     0.0000   0.0000   0.0000   0.0000   0.0000   0.0000   0.0000   0.0000
     0.0000   0.0000   0.0000   0.0000   0.0000   0.0000   0.0000   0.0000
     0.0000   0.0000   0.0000   0.0000   0.0000   0.0000   0.0000   0.0000

          k = 0.1500 0.0000 0.2173 (  4007 PWs)   bands (ev):

   -11.9904 -11.9904 -11.9878 -11.9878 -11.9759 -11.9759 -11.9682 -11.9682
    -9.0390  -9.0390  -9.0366  -9.0366  -9.0073  -9.0073  -8.9763  -8.9763
    -8.9393  -8.9393  -8.9114  -8.9114  -0.1563  -0.1563   0.2676   0.2676
     7.8722   7.8722   8.4691   8.4691   8.6676   8.6676   9.1951   9.1951
     9.6184   9.6184   9.9250   9.9250  10.6788  10.6788  12.4710  12.4710
    13.9532  13.9532  14.6481  14.6481  16.8478  16.8478  18.2623  18.2623
    19.5006  19.5006  20.5231  20.5231  21.5958  21.5958  22.3934  22.3934
    22.6148  22.6148  23.3976  23.3976  24.1964  24.1964  25.6482  25.6482
    26.1979  26.1979  26.9818  26.9818  27.2443  27.2443  27.5105  27.5105
    27.7234  27.7234  27.9878  27.9878  28.3032  28.3032  29.0276  29.0276
    29.3781  29.3781  32.4670  32.4670  33.4098  33.4098  33.6816  33.6816
    34.2812  34.2812  34.4265  34.4265  34.6263  34.6263  34.8279  34.8279
    35.6965  35.6965  35.8489  35.8489  36.1305  36.1305  36.6587  36.6587
    39.0786  39.0786  39.5941  39.5941  40.2738  40.2738  40.3908  40.3908
    41.8942  41.8942  42.1561  42.1561  42.9346  42.9346  43.9843  43.9843
    44.3182  44.3182  45.0194  45.0194  45.5933  45.5933  46.9060  46.9060
    47.8467  47.8467  48.1657  48.1657  48.2634  48.2634  48.4761  48.4761
    48.6715  48.6715  49.1977  49.1977  50.2381  50.2381  50.4174  50.4174
    52.1001  52.1001  52.3407  52.3407  52.9959  52.9959  53.3139  53.3139
    54.0436  54.0436  54.7778  54.7778  56.0300  56.0300  56.2112  56.2112

     occupation numbers 
     1.0000   1.0000   1.0000   1.0000   1.0000   1.0000   1.0000   1.0000
     1.0000   1.0000   1.0000   1.0000   1.0000   1.0000   1.0000   1.0000
     1.0000   1.0000   1.0000   1.0000   1.0000   1.0000   1.0000   1.0000
     1.0000   1.0000   1.0000   1.0000   1.0000   1.0000   1.0000   1.0000
     1.0000   1.0000   1.0000   1.0000   1.0000   1.0000   1.0000   1.0000
     0.0000   0.0000   0.0000   0.0000   0.0000   0.0000   0.0000   0.0000
     0.0000   0.0000   0.0000   0.0000   0.0000   0.0000   0.0000   0.0000
     0.0000   0.0000   0.0000   0.0000   0.0000   0.0000   0.0000   0.0000
     0.0000   0.0000   0.0000   0.0000   0.0000   0.0000   0.0000   0.0000
     0.0000   0.0000   0.0000   0.0000   0.0000   0.0000   0.0000   0.0000
     0.0000   0.0000   0.0000   0.0000   0.0000   0.0000   0.0000   0.0000
     0.0000   0.0000   0.0000   0.0000   0.0000   0.0000   0.0000   0.0000
     0.0000   0.0000   0.0000   0.0000   0.0000   0.0000   0.0000   0.0000
     0.0000   0.0000   0.0000   0.0000   0.0000   0.0000   0.0000   0.0000
     0.0000   0.0000   0.0000   0.0000   0.0000   0.0000   0.0000   0.0000
     0.0000   0.0000   0.0000   0.0000   0.0000   0.0000   0.0000   0.0000
     0.0000   0.0000   0.0000   0.0000   0.0000   0.0000   0.0000   0.0000
     0.0000   0.0000   0.0000   0.0000   0.0000   0.0000   0.0000   0.0000
     0.0000   0.0000   0.0000   0.0000   0.0000   0.0000   0.0000   0.0000
     0.0000   0.0000   0.0000   0.0000   0.0000   0.0000   0.0000   0.0000

          k = 0.2000 0.0000 0.2045 (  4006 PWs)   bands (ev):

   -11.9885 -11.9885 -11.9864 -11.9864 -11.9725 -11.9725 -11.9653 -11.9653
    -9.0333  -9.0333  -9.0307  -9.0307  -8.9985  -8.9985  -8.9736  -8.9736
    -8.9416  -8.9416  -8.9179  -8.9179  -0.0093  -0.0093   0.4946   0.4946
     7.8781   7.8781   8.4026   8.4026   8.6053   8.6053   9.1612   9.1612
     9.5210   9.5210   9.7879   9.7879  10.8024  10.8024  12.1580  12.1580
    13.1375  13.1375  14.9088  14.9088  16.6694  16.6694  17.6244  17.6244
    19.5986  19.5986  20.6922  20.6922  22.2532  22.2532  22.7056  22.7056
    23.1582  23.1582  23.7665  23.7665  24.4841  24.4841  25.3597  25.3597
    26.1937  26.1937  26.5106  26.5106  26.6948  26.6948  27.0795  27.0795
    27.3510  27.3510  27.9384  27.9384  28.2927  28.2927  29.1071  29.1071
    29.4136  29.4136  31.9187  31.9187  33.4040  33.4040  33.6113  33.6113
    33.9171  33.9171  34.1805  34.1805  35.4242  35.4242  35.5339  35.5339
    36.2888  36.2888  36.6581  36.6581  36.8507  36.8507  37.3285  37.3285
    39.4923  39.4923  39.8561  39.8561  40.3966  40.3966  40.9088  40.9088
    42.2415  42.2415  42.5786  42.5786  42.8268  42.8268  44.3876  44.3876
    44.7787  44.7787  44.9237  44.9237  45.3136  45.3136  46.3595  46.3595
    47.0570  47.0570  47.3789  47.3789  48.2434  48.2434  48.5080  48.5080
    48.9349  48.9349  49.0992  49.0992  49.5887  49.5887  50.4818  50.4818
    51.6762  51.6762  52.1594  52.1594  52.4398  52.4398  53.2681  53.2681
    53.3591  53.3591  55.2112  55.2112  55.4085  55.4085  56.1935  56.1935

     occupation numbers 
     1.0000   1.0000   1.0000   1.0000   1.0000   1.0000   1.0000   1.0000
     1.0000   1.0000   1.0000   1.0000   1.0000   1.0000   1.0000   1.0000
     1.0000   1.0000   1.0000   1.0000   1.0000   1.0000   1.0000   1.0000
     1.0000   1.0000   1.0000   1.0000   1.0000   1.0000   1.0000   1.0000
     1.0000   1.0000   1.0000   1.0000   1.0000   1.0000   1.0000   1.0000
     0.0000   0.0000   0.0000   0.0000   0.0000   0.0000   0.0000   0.0000
     0.0000   0.0000   0.0000   0.0000   0.0000   0.0000   0.0000   0.0000
     0.0000   0.0000   0.0000   0.0000   0.0000   0.0000   0.0000   0.0000
     0.0000   0.0000   0.0000   0.0000   0.0000   0.0000   0.0000   0.0000
     0.0000   0.0000   0.0000   0.0000   0.0000   0.0000   0.0000   0.0000
     0.0000   0.0000   0.0000   0.0000   0.0000   0.0000   0.0000   0.0000
     0.0000   0.0000   0.0000   0.0000   0.0000   0.0000   0.0000   0.0000
     0.0000   0.0000   0.0000   0.0000   0.0000   0.0000   0.0000   0.0000
     0.0000   0.0000   0.0000   0.0000   0.0000   0.0000   0.0000   0.0000
     0.0000   0.0000   0.0000   0.0000   0.0000   0.0000   0.0000   0.0000
     0.0000   0.0000   0.0000   0.0000   0.0000   0.0000   0.0000   0.0000
     0.0000   0.0000   0.0000   0.0000   0.0000   0.0000   0.0000   0.0000
     0.0000   0.0000   0.0000   0.0000   0.0000   0.0000   0.0000   0.0000
     0.0000   0.0000   0.0000   0.0000   0.0000   0.0000   0.0000   0.0000
     0.0000   0.0000   0.0000   0.0000   0.0000   0.0000   0.0000   0.0000

          k = 0.2500 0.0000 0.1917 (  4015 PWs)   bands (ev):

   -11.9880 -11.9880 -11.9855 -11.9855 -11.9679 -11.9679 -11.9616 -11.9616
    -9.0311  -9.0311  -9.0247  -9.0247  -8.9866  -8.9866  -8.9740  -8.9740
    -8.9391  -8.9391  -8.9244  -8.9244   0.1844   0.1844   0.7556   0.7556
     7.8133   7.8133   8.1986   8.1986   8.6078   8.6078   9.0849   9.0849
     9.4650   9.4650   9.6416   9.6416  10.8483  10.8483  11.7492  11.7492
    12.7345  12.7345  15.2638  15.2638  16.4279  16.4279  17.1716  17.1716
    19.7548  19.7548  20.8418  20.8418  22.2487  22.2487  22.9079  22.9079
    23.1382  23.1382  24.3113  24.3113  24.7436  24.7436  25.3470  25.3470
    25.6496  25.6496  26.0673  26.0673  26.4450  26.4450  26.6263  26.6263
    26.9679  26.9679  28.5458  28.5458  29.0729  29.0729  29.3662  29.3662
    29.6356  29.6356  31.3080  31.3080  32.8776  32.8776  33.1522  33.1522
    33.7959  33.7959  34.0924  34.0924  36.0156  36.0156  36.4177  36.4177
    36.6469  36.6469  37.6434  37.6434  37.7963  37.7963  38.4701  38.4701
    39.1832  39.1832  39.6559  39.6559  41.2700  41.2700  41.5153  41.5153
    41.9579  41.9579  42.8362  42.8362  43.0805  43.0805  44.0148  44.0148
    44.8935  44.8935  45.1681  45.1681  45.4040  45.4040  45.8969  45.8969
    46.1554  46.1554  47.0156  47.0156  48.1670  48.1670  48.4901  48.4901
    48.5941  48.5941  49.5212  49.5212  50.0558  50.0558  50.2979  50.2979
    50.6764  50.6764  52.1172  52.1172  52.3050  52.3050  52.9157  52.9157
    53.4354  53.4354  55.0408  55.0408  55.2382  55.2382  56.1264  56.1264

     occupation numbers 
     1.0000   1.0000   1.0000   1.0000   1.0000   1.0000   1.0000   1.0000
     1.0000   1.0000   1.0000   1.0000   1.0000   1.0000   1.0000   1.0000
     1.0000   1.0000   1.0000   1.0000   1.0000   1.0000   1.0000   1.0000
     1.0000   1.0000   1.0000   1.0000   1.0000   1.0000   1.0000   1.0000
     1.0000   1.0000   1.0000   1.0000   1.0000   1.0000   1.0000   1.0000
     0.0000   0.0000   0.0000   0.0000   0.0000   0.0000   0.0000   0.0000
     0.0000   0.0000   0.0000   0.0000   0.0000   0.0000   0.0000   0.0000
     0.0000   0.0000   0.0000   0.0000   0.0000   0.0000   0.0000   0.0000
     0.0000   0.0000   0.0000   0.0000   0.0000   0.0000   0.0000   0.0000
     0.0000   0.0000   0.0000   0.0000   0.0000   0.0000   0.0000   0.0000
     0.0000   0.0000   0.0000   0.0000   0.0000   0.0000   0.0000   0.0000
     0.0000   0.0000   0.0000   0.0000   0.0000   0.0000   0.0000   0.0000
     0.0000   0.0000   0.0000   0.0000   0.0000   0.0000   0.0000   0.0000
     0.0000   0.0000   0.0000   0.0000   0.0000   0.0000   0.0000   0.0000
     0.0000   0.0000   0.0000   0.0000   0.0000   0.0000   0.0000   0.0000
     0.0000   0.0000   0.0000   0.0000   0.0000   0.0000   0.0000   0.0000
     0.0000   0.0000   0.0000   0.0000   0.0000   0.0000   0.0000   0.0000
     0.0000   0.0000   0.0000   0.0000   0.0000   0.0000   0.0000   0.0000
     0.0000   0.0000   0.0000   0.0000   0.0000   0.0000   0.0000   0.0000
     0.0000   0.0000   0.0000   0.0000   0.0000   0.0000   0.0000   0.0000

          k = 0.3000 0.0000 0.1790 (  4018 PWs)   bands (ev):

   -11.9884 -11.9884 -11.9850 -11.9850 -11.9627 -11.9627 -11.9575 -11.9575
    -9.0308  -9.0308  -9.0201  -9.0201  -8.9791  -8.9791  -8.9722  -8.9722
    -8.9338  -8.9338  -8.9272  -8.9272   0.4162   0.4162   1.0316   1.0316
     7.5385   7.5385   7.9771   7.9771   8.6401   8.6401   9.0403   9.0403
     9.4471   9.4471   9.5820   9.5820  10.7330  10.7330  11.1635  11.1635
    12.8764  12.8764  15.5931  15.5931  16.1767  16.1767  16.9898  16.9898
    19.9397  19.9397  20.9680  20.9680  21.5919  21.5919  22.9056  22.9056
    23.2110  23.2110  24.0602  24.0602  24.6918  24.6918  25.0659  25.0659
    25.5874  25.5874  26.0204  26.0204  26.1927  26.1927  26.4099  26.4099
    27.9033  27.9033  28.9994  28.9994  29.3299  29.3299  29.4640  29.4640
    30.7508  30.7508  30.9257  30.9257  32.3351  32.3351  32.7270  32.7270
    33.5592  33.5592  34.3146  34.3146  36.1010  36.1010  37.2002  37.2002
    37.5050  37.5050  37.7482  37.7482  38.6584  38.6584  39.1164  39.1164
    39.4326  39.4326  40.3170  40.3170  41.1614  41.1614  41.4747  41.4747
    41.6266  41.6266  42.9678  42.9678  43.2648  43.2648  43.3253  43.3253
    44.6253  44.6253  45.2094  45.2094  45.4505  45.4505  45.9288  45.9288
    46.5509  46.5509  47.3167  47.3167  47.9993  47.9993  48.1881  48.1881
    48.7460  48.7460  48.8541  48.8541  49.8218  49.8218  50.7394  50.7394
    51.2347  51.2347  51.9294  51.9294  52.0349  52.0349  53.0644  53.0644
    53.1912  53.1912  54.8604  54.8604  55.2019  55.2019  55.6182  55.6182

     occupation numbers 
     1.0000   1.0000   1.0000   1.0000   1.0000   1.0000   1.0000   1.0000
     1.0000   1.0000   1.0000   1.0000   1.0000   1.0000   1.0000   1.0000
     1.0000   1.0000   1.0000   1.0000   1.0000   1.0000   1.0000   1.0000
     1.0000   1.0000   1.0000   1.0000   1.0000   1.0000   1.0000   1.0000
     1.0000   1.0000   1.0000   1.0000   1.0000   1.0000   1.0000   1.0000
     0.0000   0.0000   0.0000   0.0000   0.0000   0.0000   0.0000   0.0000
     0.0000   0.0000   0.0000   0.0000   0.0000   0.0000   0.0000   0.0000
     0.0000   0.0000   0.0000   0.0000   0.0000   0.0000   0.0000   0.0000
     0.0000   0.0000   0.0000   0.0000   0.0000   0.0000   0.0000   0.0000
     0.0000   0.0000   0.0000   0.0000   0.0000   0.0000   0.0000   0.0000
[...]
    52.6079  52.6079  52.9696  52.9696  53.4988  53.4988  54.3035  54.3035

     occupation numbers 
     1.0000   1.0000   1.0000   1.0000   1.0000   1.0000   1.0000   1.0000
     1.0000   1.0000   1.0000   1.0000   1.0000   1.0000   1.0000   1.0000
     1.0000   1.0000   1.0000   1.0000   1.0000   1.0000   1.0000   1.0000
     1.0000   1.0000   1.0000   1.0000   1.0000   1.0000   1.0000   1.0000
     1.0000   1.0000   1.0000   1.0000   1.0000   1.0000   1.0000   1.0000
     0.0000   0.0000   0.0000   0.0000   0.0000   0.0000   0.0000   0.0000
     0.0000   0.0000   0.0000   0.0000   0.0000   0.0000   0.0000   0.0000
     0.0000   0.0000   0.0000   0.0000   0.0000   0.0000   0.0000   0.0000
     0.0000   0.0000   0.0000   0.0000   0.0000   0.0000   0.0000   0.0000
     0.0000   0.0000   0.0000   0.0000   0.0000   0.0000   0.0000   0.0000
     0.0000   0.0000   0.0000   0.0000   0.0000   0.0000   0.0000   0.0000
     0.0000   0.0000   0.0000   0.0000   0.0000   0.0000   0.0000   0.0000
     0.0000   0.0000   0.0000   0.0000   0.0000   0.0000   0.0000   0.0000
     0.0000   0.0000   0.0000   0.0000   0.0000   0.0000   0.0000   0.0000
     0.0000   0.0000   0.0000   0.0000   0.0000   0.0000   0.0000   0.0000
     0.0000   0.0000   0.0000   0.0000   0.0000   0.0000   0.0000   0.0000
     0.0000   0.0000   0.0000   0.0000   0.0000   0.0000   0.0000   0.0000
     0.0000   0.0000   0.0000   0.0000   0.0000   0.0000   0.0000   0.0000
     0.0000   0.0000   0.0000   0.0000   0.0000   0.0000   0.0000   0.0000
     0.0000   0.0000   0.0000   0.0000   0.0000   0.0000   0.0000   0.0000

          k = 0.2000-0.2000 0.1534 (  4025 PWs)   bands (ev):

   -11.9792 -11.9792 -11.9754 -11.9754 -11.9716 -11.9716 -11.9640 -11.9640
    -9.0065  -9.0065  -8.9994  -8.9994  -8.9947  -8.9947  -8.9661  -8.9661
    -8.9563  -8.9563  -8.9393  -8.9393   0.2623   0.2623   1.1074   1.1074
     7.8438   7.8438   8.5497   8.5497   8.6706   8.6706   8.8647   8.8647
     9.2741   9.2741   9.7558   9.7558  11.2644  11.2644  12.1271  12.1271
    12.2789  12.2789  13.8475  13.8475  14.4085  14.4085  17.9516  17.9516
    19.2523  19.2523  21.1820  21.1820  21.7564  21.7564  22.5084  22.5084
    23.2702  23.2702  23.9838  23.9838  24.3358  24.3358  24.8246  24.8246
    25.2202  25.2202  26.0222  26.0222  27.0532  27.0532  28.2938  28.2938
    28.5673  28.5673  29.0780  29.0780  29.8139  29.8139  30.0569  30.0569
    30.3707  30.3707  31.8305  31.8305  32.1896  32.1896  32.9428  32.9428
    34.0421  34.0421  34.3335  34.3335  34.8644  34.8644  36.6758  36.6758
    37.4720  37.4720  37.7216  37.7216  38.2819  38.2819  38.7826  38.7826
    39.1707  39.1707  40.4177  40.4177  40.7161  40.7161  41.3671  41.3671
    41.9797  41.9797  42.1729  42.1729  43.6673  43.6673  43.9567  43.9567
    44.4488  44.4488  45.7092  45.7092  46.3191  46.3191  46.5873  46.5873
    46.7318  46.7318  46.9060  46.9060  47.5763  47.5763  48.2718  48.2718
    48.6254  48.6254  49.6017  49.6017  49.9014  49.9014  50.9749  50.9749
    51.0849  51.0849  51.3850  51.3850  51.9828  51.9828  52.0390  52.0390
    52.4166  52.4166  52.7996  52.7996  54.2518  54.2518  55.0965  55.0965

     occupation numbers 
     1.0000   1.0000   1.0000   1.0000   1.0000   1.0000   1.0000   1.0000
     1.0000   1.0000   1.0000   1.0000   1.0000   1.0000   1.0000   1.0000
     1.0000   1.0000   1.0000   1.0000   1.0000   1.0000   1.0000   1.0000
     1.0000   1.0000   1.0000   1.0000   1.0000   1.0000   1.0000   1.0000
     1.0000   1.0000   1.0000   1.0000   1.0000   1.0000   1.0000   1.0000
     0.0000   0.0000   0.0000   0.0000   0.0000   0.0000   0.0000   0.0000
     0.0000   0.0000   0.0000   0.0000   0.0000   0.0000   0.0000   0.0000
     0.0000   0.0000   0.0000   0.0000   0.0000   0.0000   0.0000   0.0000
     0.0000   0.0000   0.0000   0.0000   0.0000   0.0000   0.0000   0.0000
     0.0000   0.0000   0.0000   0.0000   0.0000   0.0000   0.0000   0.0000
     0.0000   0.0000   0.0000   0.0000   0.0000   0.0000   0.0000   0.0000
     0.0000   0.0000   0.0000   0.0000   0.0000   0.0000   0.0000   0.0000
     0.0000   0.0000   0.0000   0.0000   0.0000   0.0000   0.0000   0.0000
     0.0000   0.0000   0.0000   0.0000   0.0000   0.0000   0.0000   0.0000
     0.0000   0.0000   0.0000   0.0000   0.0000   0.0000   0.0000   0.0000
     0.0000   0.0000   0.0000   0.0000   0.0000   0.0000   0.0000   0.0000
     0.0000   0.0000   0.0000   0.0000   0.0000   0.0000   0.0000   0.0000
     0.0000   0.0000   0.0000   0.0000   0.0000   0.0000   0.0000   0.0000
     0.0000   0.0000   0.0000   0.0000   0.0000   0.0000   0.0000   0.0000
     0.0000   0.0000   0.0000   0.0000   0.0000   0.0000   0.0000   0.0000

          k = 0.1500-0.1500 0.1790 (  4013 PWs)   bands (ev):

   -11.9837 -11.9837 -11.9809 -11.9809 -11.9774 -11.9774 -11.9661 -11.9661
    -9.0231  -9.0231  -9.0182  -9.0182  -9.0061  -9.0061  -8.9698  -8.9698
    -8.9492  -8.9492  -8.9238  -8.9238  -0.0387  -0.0387   0.6685   0.6685
     7.7852   7.7852   8.5445   8.5445   8.7611   8.7611   8.9756   8.9756
     9.3838   9.3838   9.9073   9.9073  11.1052  11.1052  12.5802  12.5802
    13.0750  13.0750  13.9215  13.9215  15.1657  15.1657  18.4210  18.4210
    19.7981  19.7981  21.2815  21.2815  22.1686  22.1686  22.5448  22.5448
    23.0715  23.0715  23.6811  23.6811  23.8354  23.8354  25.2839  25.2839
    25.5796  25.5796  26.1019  26.1019  26.6135  26.6135  27.2827  27.2827
    27.8697  27.8697  28.8421  28.8421  29.3708  29.3708  29.8744  29.8744
    30.5006  30.5006  31.0088  31.0088  32.5937  32.5937  32.9878  32.9878
    33.5756  33.5756  34.0919  34.0919  34.6820  34.6820  36.2375  36.2375
    36.7712  36.7712  37.8205  37.8205  37.9319  37.9319  38.4273  38.4273
    38.7386  38.7386  39.2295  39.2295  40.2197  40.2197  40.9345  40.9345
    41.4163  41.4163  42.0634  42.0634  42.7110  42.7110  43.7033  43.7033
    44.3013  44.3013  45.5817  45.5817  46.6602  46.6602  46.8895  46.8895
    47.2529  47.2529  47.5185  47.5185  47.8929  47.8929  48.2414  48.2414
    49.5489  49.5489  49.8007  49.8007  50.3784  50.3784  50.5060  50.5060
    50.5922  50.5922  52.2331  52.2331  52.6169  52.6169  52.8973  52.8973
    53.5051  53.5051  53.7145  53.7145  54.7003  54.7003  55.0783  55.0783

     occupation numbers 
     1.0000   1.0000   1.0000   1.0000   1.0000   1.0000   1.0000   1.0000
     1.0000   1.0000   1.0000   1.0000   1.0000   1.0000   1.0000   1.0000
     1.0000   1.0000   1.0000   1.0000   1.0000   1.0000   1.0000   1.0000
     1.0000   1.0000   1.0000   1.0000   1.0000   1.0000   1.0000   1.0000
     1.0000   1.0000   1.0000   1.0000   1.0000   1.0000   1.0000   1.0000
     0.0000   0.0000   0.0000   0.0000   0.0000   0.0000   0.0000   0.0000
     0.0000   0.0000   0.0000   0.0000   0.0000   0.0000   0.0000   0.0000
     0.0000   0.0000   0.0000   0.0000   0.0000   0.0000   0.0000   0.0000
     0.0000   0.0000   0.0000   0.0000   0.0000   0.0000   0.0000   0.0000
     0.0000   0.0000   0.0000   0.0000   0.0000   0.0000   0.0000   0.0000
     0.0000   0.0000   0.0000   0.0000   0.0000   0.0000   0.0000   0.0000
     0.0000   0.0000   0.0000   0.0000   0.0000   0.0000   0.0000   0.0000
     0.0000   0.0000   0.0000   0.0000   0.0000   0.0000   0.0000   0.0000
     0.0000   0.0000   0.0000   0.0000   0.0000   0.0000   0.0000   0.0000
     0.0000   0.0000   0.0000   0.0000   0.0000   0.0000   0.0000   0.0000
     0.0000   0.0000   0.0000   0.0000   0.0000   0.0000   0.0000   0.0000
     0.0000   0.0000   0.0000   0.0000   0.0000   0.0000   0.0000   0.0000
     0.0000   0.0000   0.0000   0.0000   0.0000   0.0000   0.0000   0.0000
     0.0000   0.0000   0.0000   0.0000   0.0000   0.0000   0.0000   0.0000
     0.0000   0.0000   0.0000   0.0000   0.0000   0.0000   0.0000   0.0000

          k = 0.1000-0.1000 0.2045 (  4001 PWs)   bands (ev):

   -11.9897 -11.9897 -11.9867 -11.9867 -11.9783 -11.9783 -11.9683 -11.9683
    -9.0385  -9.0385  -9.0347  -9.0347  -9.0110  -9.0110  -8.9762  -8.9762
    -8.9397  -8.9397  -8.9114  -8.9114  -0.2295  -0.2295   0.3016   0.3016
     7.7770   7.7770   8.4898   8.4898   8.8020   8.8020   9.0879   9.0879
     9.6055   9.6055   9.9649   9.9649  10.8116  10.8116  12.8723  12.8723
    13.8243  13.8243  14.5110  14.5110  16.1592  16.1592  18.9999  18.9999
    20.0391  20.0391  20.2884  20.2884  21.4368  21.4368  21.5843  21.5843
    22.5254  22.5254  23.6880  23.6880  24.4973  24.4973  25.1674  25.1674
    26.0167  26.0167  26.6252  26.6252  27.0578  27.0578  27.4118  27.4118
    27.5295  27.5295  28.6676  28.6676  29.0390  29.0390  29.6641  29.6641
    30.3429  30.3429  32.0547  32.0547  32.6061  32.6061  33.2117  33.2117
    33.6444  33.6444  33.8223  33.8223  34.7809  34.7809  35.1649  35.1649
    35.5438  35.5438  36.3611  36.3611  36.7177  36.7177  37.8865  37.8865
    38.2555  38.2555  39.5720  39.5720  39.7395  39.7395  40.5767  40.5767
    40.7699  40.7699  42.0267  42.0267  43.1284  43.1284  43.6849  43.6849
    43.8994  43.8994  45.5169  45.5169  46.0485  46.0485  46.3752  46.3752
    47.9019  47.9019  48.3481  48.3481  48.7365  48.7365  48.8097  48.8097
    49.1282  49.1282  49.3720  49.3720  50.3292  50.3292  51.1416  51.1416
    51.3891  51.3891  51.9440  51.9440  53.1878  53.1878  53.5645  53.5645
    54.6246  54.6246  55.0865  55.0865  55.2800  55.2800  55.3322  55.3322

     occupation numbers 
     1.0000   1.0000   1.0000   1.0000   1.0000   1.0000   1.0000   1.0000
     1.0000   1.0000   1.0000   1.0000   1.0000   1.0000   1.0000   1.0000
     1.0000   1.0000   1.0000   1.0000   1.0000   1.0000   1.0000   1.0000
     1.0000   1.0000   1.0000   1.0000   1.0000   1.0000   1.0000   1.0000
     1.0000   1.0000   1.0000   1.0000   1.0000   1.0000   1.0000   1.0000
     0.0000   0.0000   0.0000   0.0000   0.0000   0.0000   0.0000   0.0000
     0.0000   0.0000   0.0000   0.0000   0.0000   0.0000   0.0000   0.0000
     0.0000   0.0000   0.0000   0.0000   0.0000   0.0000   0.0000   0.0000
     0.0000   0.0000   0.0000   0.0000   0.0000   0.0000   0.0000   0.0000
     0.0000   0.0000   0.0000   0.0000   0.0000   0.0000   0.0000   0.0000
     0.0000   0.0000   0.0000   0.0000   0.0000   0.0000   0.0000   0.0000
     0.0000   0.0000   0.0000   0.0000   0.0000   0.0000   0.0000   0.0000
     0.0000   0.0000   0.0000   0.0000   0.0000   0.0000   0.0000   0.0000
     0.0000   0.0000   0.0000   0.0000   0.0000   0.0000   0.0000   0.0000
     0.0000   0.0000   0.0000   0.0000   0.0000   0.0000   0.0000   0.0000
     0.0000   0.0000   0.0000   0.0000   0.0000   0.0000   0.0000   0.0000
     0.0000   0.0000   0.0000   0.0000   0.0000   0.0000   0.0000   0.0000
     0.0000   0.0000   0.0000   0.0000   0.0000   0.0000   0.0000   0.0000
     0.0000   0.0000   0.0000   0.0000   0.0000   0.0000   0.0000   0.0000
     0.0000   0.0000   0.0000   0.0000   0.0000   0.0000   0.0000   0.0000

          k = 0.0500-0.0500 0.2301 (  4007 PWs)   bands (ev):

   -11.9938 -11.9938 -11.9912 -11.9912 -11.9781 -11.9781 -11.9703 -11.9703
    -9.0481  -9.0481  -9.0456  -9.0456  -9.0139  -9.0139  -8.9805  -8.9805
    -8.9331  -8.9331  -8.9039  -8.9039  -0.3110  -0.3110   0.0369   0.0369
     7.8006   7.8006   8.4516   8.4516   8.8921   8.8921   9.2056   9.2056
     9.7513   9.7513   9.7725   9.7725  10.6448  10.6448  13.1261  13.1261
    14.4574  14.4574  15.1981  15.1981  17.2291  17.2291  18.7616  18.7616
    19.9406  19.9406  20.0630  20.0630  20.5343  20.5343  21.4807  21.4807
    21.7174  21.7174  22.9775  22.9775  24.1741  24.1741  24.6340  24.6340
    26.0516  26.0516  27.5641  27.5641  28.1190  28.1190  28.2479  28.2479
    28.5310  28.5310  28.5617  28.5617  29.4439  29.4439  29.7879  29.7879
    29.9470  29.9470  32.2633  32.2633  32.9556  32.9556  33.2962  33.2962
    33.4348  33.4348  33.5542  33.5542  33.8367  33.8367  34.0232  34.0232
    34.3354  34.3354  36.1008  36.1008  37.0374  37.0374  37.1937  37.1937
    37.9509  37.9509  38.6747  38.6747  39.1665  39.1665  40.1805  40.1805
    41.4838  41.4838  41.7438  41.7438  42.5272  42.5272  43.2309  43.2309
    44.4257  44.4257  45.5948  45.5948  46.1105  46.1105  46.6036  46.6036
    47.1575  47.1575  48.1369  48.1369  48.8411  48.8411  49.2943  49.2943
    49.5348  49.5348  49.8866  49.8866  51.1259  51.1259  51.7337  51.7337
    51.9179  51.9179  52.1429  52.1429  53.1517  53.1517  53.9720  53.9720
    54.3344  54.3344  55.0810  55.0810  55.9501  55.9501  56.1328  56.1328

     occupation numbers 
     1.0000   1.0000   1.0000   1.0000   1.0000   1.0000   1.0000   1.0000
     1.0000   1.0000   1.0000   1.0000   1.0000   1.0000   1.0000   1.0000
     1.0000   1.0000   1.0000   1.0000   1.0000   1.0000   1.0000   1.0000
     1.0000   1.0000   1.0000   1.0000   1.0000   1.0000   1.0000   1.0000
     1.0000   1.0000   1.0000   1.0000   1.0000   1.0000   1.0000   1.0000
     0.0000   0.0000   0.0000   0.0000   0.0000   0.0000   0.0000   0.0000
     0.0000   0.0000   0.0000   0.0000   0.0000   0.0000   0.0000   0.0000
     0.0000   0.0000   0.0000   0.0000   0.0000   0.0000   0.0000   0.0000
     0.0000   0.0000   0.0000   0.0000   0.0000   0.0000   0.0000   0.0000
     0.0000   0.0000   0.0000   0.0000   0.0000   0.0000   0.0000   0.0000
     0.0000   0.0000   0.0000   0.0000   0.0000   0.0000   0.0000   0.0000
     0.0000   0.0000   0.0000   0.0000   0.0000   0.0000   0.0000   0.0000
     0.0000   0.0000   0.0000   0.0000   0.0000   0.0000   0.0000   0.0000
     0.0000   0.0000   0.0000   0.0000   0.0000   0.0000   0.0000   0.0000
     0.0000   0.0000   0.0000   0.0000   0.0000   0.0000   0.0000   0.0000
     0.0000   0.0000   0.0000   0.0000   0.0000   0.0000   0.0000   0.0000
     0.0000   0.0000   0.0000   0.0000   0.0000   0.0000   0.0000   0.0000
     0.0000   0.0000   0.0000   0.0000   0.0000   0.0000   0.0000   0.0000
     0.0000   0.0000   0.0000   0.0000   0.0000   0.0000   0.0000   0.0000
     0.0000   0.0000   0.0000   0.0000   0.0000   0.0000   0.0000   0.0000

          k = 0.0000 0.0000 0.2557 (  4006 PWs)   bands (ev):

   -11.9951 -11.9951 -11.9929 -11.9929 -11.9779 -11.9779 -11.9710 -11.9710
    -9.0511  -9.0511  -9.0495  -9.0495  -9.0148  -9.0148  -8.9820  -8.9820
    -8.9308  -8.9308  -8.9015  -8.9015  -0.3203  -0.3203  -0.0711  -0.0711
     7.8131   7.8131   8.4382   8.4382   8.9725   8.9725   9.3355   9.3355
     9.5157   9.5157   9.7998   9.7998  10.6243  10.6243  13.2474  13.2474
    14.7640  14.7640  15.4691  15.4691  17.9073  17.9073  18.3891  18.3891
    19.5949  19.5949  19.8154  19.8154  20.8487  20.8487  21.0649  21.0649
    21.9161  21.9161  22.3104  22.3104  23.5927  23.5927  25.1250  25.1250
    25.5431  25.5431  27.9975  27.9975  28.4741  28.4741  28.5119  28.5119
    28.5169  28.5169  29.4789  29.4789  29.8907  29.8907  30.0921  30.0921
    30.2511  30.2511  31.9875  31.9875  32.6814  32.6814  32.9026  32.9026
    32.9246  32.9246  33.2497  33.2497  33.5660  33.5660  33.6362  33.6362
    33.6753  33.6753  36.6402  36.6402  37.2174  37.2174  37.7806  37.7806
    38.1560  38.1560  38.2743  38.2743  38.7593  38.7593  39.0287  39.0287
    41.7059  41.7059  41.8229  41.8229  41.9200  41.9200  43.2803  43.2803
    45.1875  45.1875  45.9409  45.9409  45.9878  45.9878  46.1065  46.1065
    46.4607  46.4607  48.4450  48.4450  48.8651  48.8651  49.4184  49.4184
    49.7993  49.7993  50.4501  50.4501  51.5723  51.5723  52.0384  52.0384
    52.0469  52.0469  52.1477  52.1477  52.4078  52.4078  54.6046  54.6046
    54.6244  54.6244  55.2192  55.2192  55.2280  55.2280  56.1021  56.1021

     occupation numbers 
     1.0000   1.0000   1.0000   1.0000   1.0000   1.0000   1.0000   1.0000
     1.0000   1.0000   1.0000   1.0000   1.0000   1.0000   1.0000   1.0000
     1.0000   1.0000   1.0000   1.0000   1.0000   1.0000   1.0000   1.0000
     1.0000   1.0000   1.0000   1.0000   1.0000   1.0000   1.0000   1.0000
     1.0000   1.0000   1.0000   1.0000   1.0000   1.0000   1.0000   1.0000
     0.0000   0.0000   0.0000   0.0000   0.0000   0.0000   0.0000   0.0000
     0.0000   0.0000   0.0000   0.0000   0.0000   0.0000   0.0000   0.0000
     0.0000   0.0000   0.0000   0.0000   0.0000   0.0000   0.0000   0.0000
     0.0000   0.0000   0.0000   0.0000   0.0000   0.0000   0.0000   0.0000
     0.0000   0.0000   0.0000   0.0000   0.0000   0.0000   0.0000   0.0000
     0.0000   0.0000   0.0000   0.0000   0.0000   0.0000   0.0000   0.0000
     0.0000   0.0000   0.0000   0.0000   0.0000   0.0000   0.0000   0.0000
     0.0000   0.0000   0.0000   0.0000   0.0000   0.0000   0.0000   0.0000
     0.0000   0.0000   0.0000   0.0000   0.0000   0.0000   0.0000   0.0000
     0.0000   0.0000   0.0000   0.0000   0.0000   0.0000   0.0000   0.0000
     0.0000   0.0000   0.0000   0.0000   0.0000   0.0000   0.0000   0.0000
     0.0000   0.0000   0.0000   0.0000   0.0000   0.0000   0.0000   0.0000
     0.0000   0.0000   0.0000   0.0000   0.0000   0.0000   0.0000   0.0000
     0.0000   0.0000   0.0000   0.0000   0.0000   0.0000   0.0000   0.0000
     0.0000   0.0000   0.0000   0.0000   0.0000   0.0000   0.0000   0.0000

     highest occupied, lowest unoccupied level (ev):    14.5963   11.9979

     Writing all to output data dir ./Bi2Pd/Bi2Pd.save/
 
     init_run     :      0.58s CPU      0.68s WALL (       1 calls)
     electrons    :    639.03s CPU    654.20s WALL (       1 calls)

     Called by init_run:
     wfcinit      :      0.00s CPU      0.00s WALL (       1 calls)
     wfcinit:atom :      0.03s CPU      0.03s WALL (      51 calls)
     wfcinit:wfcr :     23.63s CPU     24.04s WALL (      51 calls)
     potinit      :      0.03s CPU      0.04s WALL (       1 calls)
     hinit0       :      0.22s CPU      0.22s WALL (       1 calls)

     Called by electrons:
     c_bands      :    639.02s CPU    654.20s WALL (       1 calls)
     v_of_rho     :      0.01s CPU      0.01s WALL (       1 calls)
     v_h          :      0.00s CPU      0.00s WALL (       1 calls)
     v_xc         :      0.01s CPU      0.01s WALL (       1 calls)
     newd         :      0.31s CPU      0.39s WALL (       1 calls)

     Called by c_bands:
     init_us_2    :      0.02s CPU      0.02s WALL (      51 calls)
     init_us_2:cp :      0.02s CPU      0.02s WALL (      51 calls)
     cegterg      :    614.45s CPU    629.12s WALL (     120 calls)

     Called by sum_band:

     Called by *egterg:
     cdiaghg      :     42.01s CPU     44.02s WALL (    2118 calls)
     cegterg:over :     30.69s CPU     31.45s WALL (    2067 calls)
     cegterg:upda :     18.82s CPU     19.28s WALL (    2067 calls)
     cegterg:last :     51.81s CPU     52.92s WALL (    1130 calls)
     cdiaghg:chol :      0.79s CPU      0.81s WALL (    2118 calls)
     cdiaghg:inve :      0.31s CPU      0.31s WALL (    2118 calls)
     cdiaghg:para :      7.81s CPU      8.23s WALL (    4236 calls)
     h_psi        :    482.56s CPU    492.92s WALL (    2238 calls)
     s_psi        :      6.40s CPU      6.61s WALL (    2238 calls)
     g_psi        :      0.72s CPU      0.73s WALL (    2067 calls)

     Called by h_psi:
     h_psi:calbec :      6.02s CPU      6.20s WALL (    2238 calls)
     vloc_psi     :    468.53s CPU    478.51s WALL (    2238 calls)
     add_vuspsi   :      6.86s CPU      6.96s WALL (    2238 calls)

     General routines
     calbec       :      6.02s CPU      6.20s WALL (    2238 calls)
     fft          :      0.02s CPU      0.02s WALL (      12 calls)
     ffts         :      0.00s CPU      0.00s WALL (       4 calls)
     fftw         :    231.31s CPU    236.22s WALL (  722524 calls)
     interpolate  :      0.01s CPU      0.01s WALL (       4 calls)
     davcio       :      0.12s CPU      0.21s WALL (     102 calls)
 
     Parallel routines
 
     PWSCF        :  10m40.04s CPU  10m55.94s WALL

 
   This run was terminated on:  13:14:22   8Jan2024            

=------------------------------------------------------------------------------=
   JOB DONE.
=------------------------------------------------------------------------------=
