
     Program PWSCF v.7.2 starts on  8Jan2024 at 11:40:28 

     This program is part of the open-source Quantum ESPRESSO suite
     for quantum simulation of materials; please cite
         "P. Giannozzi et al., J. Phys.:Condens. Matter 21 395502 (2009);
         "P. Giannozzi et al., J. Phys.:Condens. Matter 29 465901 (2017);
         "P. Giannozzi et al., J. Chem. Phys. 152 154105 (2020);
          URL http://www.quantum-espresso.org", 
     in publications or presentations arising from this work. More details at
     http://www.quantum-espresso.org/quote

     Parallel version (MPI), running on     4 processors

     MPI processes distributed on     1 nodes
     10662 MiB available memory on the printing compute node when the environment starts
 
     Waiting for input...
     Reading input from standard input

     Current dimensions of program PWSCF are:
     Max number of different atomic species (ntypx) = 10
     Max number of k-points (npk) =  40000
     Max angular momentum in pseudopotentials (lmaxx) =  4
     file Bi.rel-pz-dn-rrkjus_psl.1.0.0.UPF: wavefunction(s)  5D 5D renormalized
     file Pd.rel-pz-n-rrkjus_psl.1.0.0.UPF: wavefunction(s)  4D 4D renormalized

     Atomic positions and unit cell read from directory:
     ./Bi2Pd/Bi2Pd.save/
     Atomic positions from file used, from input discarded
 
 
     R & G space division:  proc/nbgrp/npool/nimage =       4
     Subspace diagonalization in iterative solution of the eigenvalue problem:
     one sub-group per band group will be used
     custom distributed-memory algorithm (size of sub-group:  2*  2 procs)

 
     Parallelization info
     --------------------
     sticks:   dense  smooth     PW     G-vecs:    dense   smooth      PW
     Min         888     393    131                27174     8061    1548
     Max         889     394    132                27175     8062    1549
     Sum        3553    1573    525               108697    32245    6195
 
     Using Slab Decomposition
 


     bravais-lattice index     =            6
     lattice parameter (alat)  =       6.3999  a.u.
     unit-cell volume          =     512.6613 (a.u.)^3
     number of atoms/cell      =            3
     number of atomic types    =            2
     number of electrons       =        40.00
     number of Kohn-Sham states=          160
     kinetic-energy cutoff     =      60.0000  Ry
     charge density cutoff     =     540.0000  Ry
     Exchange-correlation= LDA
                           (   1   1   0   0   0   0   0)
     Non magnetic calculation with spin-orbit


     celldm(1)=   6.399898  celldm(2)=   0.000000  celldm(3)=   3.911483
     celldm(4)=   0.000000  celldm(5)=   0.000000  celldm(6)=   0.000000

     crystal axes: (cart. coord. in units of alat)
               a(1) = (   0.500000  -0.500000   1.955741 )  
               a(2) = (   0.500000   0.500000   1.955741 )  
               a(3) = (  -0.500000  -0.500000   1.955741 )  

     reciprocal axes: (cart. coord. in units 2 pi/alat)
               b(1) = (  1.000000 -1.000000  0.000000 )  
               b(2) = (  0.000000  1.000000  0.255658 )  
               b(3) = ( -1.000000  0.000000  0.255658 )  


     PseudoPot. # 1 for Bi read from file:
     ~/q-e/pseudo/pslibrary/rel-pz/PSEUDOPOTENTIALS/Bi.rel-pz-dn-rrkjus_psl.1.0.0.UPF
     MD5 check sum: Not computed, couldn't open file
     Pseudo is Ultrasoft + core correction, Zval = 15.0
     Generated using 'atomic' code by A. Dal Corso  v.7.2
     Using radial grid of 1283 points, 10 beta functions with: 
                l(1) =   0
                l(2) =   0
                l(3) =   1
                l(4) =   1
                l(5) =   1
                l(6) =   1
                l(7) =   2
                l(8) =   2
                l(9) =   2
               l(10) =   2
     Q(r) pseudized with 0 coefficients 


     PseudoPot. # 2 for Pd read from file:
     ~/q-e/pseudo/pslibrary/rel-pz/PSEUDOPOTENTIALS/Pd.rel-pz-n-rrkjus_psl.1.0.0.UPF
     MD5 check sum: Not computed, couldn't open file
     Pseudo is Ultrasoft + core correction, Zval = 10.0
     Generated using 'atomic' code by A. Dal Corso  v.7.2
     Using radial grid of 1235 points, 10 beta functions with: 
                l(1) =   0
                l(2) =   0
                l(3) =   1
                l(4) =   1
                l(5) =   1
                l(6) =   1
                l(7) =   2
                l(8) =   2
                l(9) =   2
               l(10) =   2
     Q(r) pseudized with 0 coefficients 


     atomic species   valence    mass     pseudopotential
     Bi               15.00   208.98000     Bi( 1.00)
     Pd               10.00   106.42000     Pd( 1.00)

     16 Sym. Ops., with inversion, found


                                    s                        frac. trans.

      isym =  1     identity                                     

 cryst.   s( 1) = (     1          0          0      )
                  (     0          1          0      )
                  (     0          0          1      )

 cart.    s( 1) = (  1.0000000  0.0000000  0.0000000 )
                  (  0.0000000  1.0000000  0.0000000 )
                  (  0.0000000  0.0000000  1.0000000 )


      isym =  2     180 deg rotation - cart. axis [0,0,1]        

 cryst.   s( 2) = (    -1          1          1      )
                  (     0          0          1      )
                  (     0          1          0      )

 cart.    s( 2) = ( -1.0000000  0.0000000  0.0000000 )
                  (  0.0000000 -1.0000000  0.0000000 )
                  (  0.0000000  0.0000000  1.0000000 )


      isym =  3     180 deg rotation - cart. axis [0,1,0]        

 cryst.   s( 3) = (     0         -1          0      )
                  (    -1          0          0      )
                  (     1         -1         -1      )

 cart.    s( 3) = ( -1.0000000  0.0000000  0.0000000 )
                  (  0.0000000  1.0000000  0.0000000 )
                  (  0.0000000  0.0000000 -1.0000000 )


      isym =  4     180 deg rotation - cart. axis [1,0,0]        

 cryst.   s( 4) = (     0          0         -1      )
                  (     1         -1         -1      )
                  (    -1          0          0      )

 cart.    s( 4) = (  1.0000000  0.0000000  0.0000000 )
                  (  0.0000000 -1.0000000  0.0000000 )
                  (  0.0000000  0.0000000 -1.0000000 )


      isym =  5     180 deg rotation - cart. axis [1,1,0]        

 cryst.   s( 5) = (    -1          0          0      )
                  (     0          0         -1      )
                  (     0         -1          0      )

 cart.    s( 5) = (  0.0000000  1.0000000  0.0000000 )
                  (  1.0000000  0.0000000  0.0000000 )
                  (  0.0000000  0.0000000 -1.0000000 )


      isym =  6     180 deg rotation - cart. axis [1,-1,0]       

 cryst.   s( 6) = (     1         -1         -1      )
                  (     0         -1          0      )
                  (     0          0         -1      )

 cart.    s( 6) = (  0.0000000 -1.0000000  0.0000000 )
                  ( -1.0000000  0.0000000  0.0000000 )
                  (  0.0000000  0.0000000 -1.0000000 )


      isym =  7      90 deg rotation - cart. axis [0,0,-1]       

 cryst.   s( 7) = (     0          0          1      )
                  (     1          0          0      )
                  (    -1          1          1      )

 cart.    s( 7) = (  0.0000000  1.0000000  0.0000000 )
                  ( -1.0000000  0.0000000  0.0000000 )
                  (  0.0000000  0.0000000  1.0000000 )


      isym =  8      90 deg rotation - cart. axis [0,0,1]        

 cryst.   s( 8) = (     0          1          0      )
                  (    -1          1          1      )
                  (     1          0          0      )

 cart.    s( 8) = (  0.0000000 -1.0000000  0.0000000 )
                  (  1.0000000  0.0000000  0.0000000 )
                  (  0.0000000  0.0000000  1.0000000 )


      isym =  9     inversion                                    

 cryst.   s( 9) = (    -1          0          0      )
                  (     0         -1          0      )
                  (     0          0         -1      )

 cart.    s( 9) = ( -1.0000000  0.0000000  0.0000000 )
                  (  0.0000000 -1.0000000  0.0000000 )
                  (  0.0000000  0.0000000 -1.0000000 )


      isym = 10     inv. 180 deg rotation - cart. axis [0,0,1]   

 cryst.   s(10) = (     1         -1         -1      )
                  (     0          0         -1      )
                  (     0         -1          0      )

 cart.    s(10) = (  1.0000000  0.0000000  0.0000000 )
                  (  0.0000000  1.0000000  0.0000000 )
                  (  0.0000000  0.0000000 -1.0000000 )


      isym = 11     inv. 180 deg rotation - cart. axis [0,1,0]   

 cryst.   s(11) = (     0          1          0      )
                  (     1          0          0      )
                  (    -1          1          1      )

 cart.    s(11) = (  1.0000000  0.0000000  0.0000000 )
                  (  0.0000000 -1.0000000  0.0000000 )
                  (  0.0000000  0.0000000  1.0000000 )


      isym = 12     inv. 180 deg rotation - cart. axis [1,0,0]   

 cryst.   s(12) = (     0          0          1      )
                  (    -1          1          1      )
                  (     1          0          0      )

 cart.    s(12) = ( -1.0000000  0.0000000  0.0000000 )
                  (  0.0000000  1.0000000  0.0000000 )
                  (  0.0000000  0.0000000  1.0000000 )


      isym = 13     inv. 180 deg rotation - cart. axis [1,1,0]   

 cryst.   s(13) = (     1          0          0      )
                  (     0          0          1      )
                  (     0          1          0      )

 cart.    s(13) = (  0.0000000 -1.0000000  0.0000000 )
                  ( -1.0000000  0.0000000  0.0000000 )
                  (  0.0000000  0.0000000  1.0000000 )


      isym = 14     inv. 180 deg rotation - cart. axis [1,-1,0]  

 cryst.   s(14) = (    -1          1          1      )
                  (     0          1          0      )
                  (     0          0          1      )

 cart.    s(14) = (  0.0000000  1.0000000  0.0000000 )
                  (  1.0000000  0.0000000  0.0000000 )
                  (  0.0000000  0.0000000  1.0000000 )


      isym = 15     inv.  90 deg rotation - cart. axis [0,0,-1]  

 cryst.   s(15) = (     0          0         -1      )
                  (    -1          0          0      )
                  (     1         -1         -1      )

 cart.    s(15) = (  0.0000000 -1.0000000  0.0000000 )
                  (  1.0000000  0.0000000  0.0000000 )
                  (  0.0000000  0.0000000 -1.0000000 )


      isym = 16     inv.  90 deg rotation - cart. axis [0,0,1]   

 cryst.   s(16) = (     0         -1          0      )
                  (     1         -1         -1      )
                  (    -1          0          0      )

 cart.    s(16) = (  0.0000000  1.0000000  0.0000000 )
                  ( -1.0000000  0.0000000  0.0000000 )
                  (  0.0000000  0.0000000 -1.0000000 )


     double point group D_4h(4/mmm)
     there are 14 classes and  4 irreducible representations
     the character table:

       E     -E    2C4   -2C4   C2    2C2' 2C2'' i     -i    2S4   -2S4   s_h 
                               -C2   -2C2' -2C2'                         -s_h 
G_6+   2.00 -2.00  1.41 -1.41  0.00  0.00  0.00  2.00 -2.00  1.41 -1.41  0.00
G_7+   2.00 -2.00 -1.41  1.41  0.00  0.00  0.00  2.00 -2.00 -1.41  1.41  0.00
G_6-   2.00 -2.00  1.41 -1.41  0.00  0.00  0.00 -2.00  2.00 -1.41  1.41  0.00
G_7-   2.00 -2.00 -1.41  1.41  0.00  0.00  0.00 -2.00  2.00  1.41 -1.41  0.00

        2s_v  2s_d
       -2s_v -2s_d
G_6+   0.00  0.00
G_7+   0.00  0.00
G_6-   0.00  0.00
G_7-   0.00  0.00

     the symmetry operations in each class and the name of the first element:

     E             1
          identity                                               
     -E           -1
          identity E                                             
     2C4           7    8
           90 deg rotation - cart. axis [0,0,-1]                 
     -2C4         -7   -8
           90 deg rotation - cart. axis [0,0,-1] E               
      C2  -C2      2   -2
          180 deg rotation - cart. axis [0,0,1]                  
      2C2'-2C2'    3   -3    4   -4
          180 deg rotation - cart. axis [0,1,0]                  
     2C2''-2C2'    5   -5   -6    6
          180 deg rotation - cart. axis [1,1,0]                  
     i             9
          inversion                                              
     -i           -9
          inversion E                                            
     2S4          15   16
          inv.  90 deg rotation - cart. axis [0,0,-1]            
     -2S4        -15  -16
          inv.  90 deg rotation - cart. axis [0,0,-1] E          
      s_h -s_h    10  -10
          inv. 180 deg rotation - cart. axis [0,0,1]             
      2s_v-2s_v   11  -11   12  -12
          inv. 180 deg rotation - cart. axis [0,1,0]             
      2s_d-2s_d   13  -13  -14   14
          inv. 180 deg rotation - cart. axis [1,1,0]             

   Cartesian axes

     site n.     atom                  positions (alat units)
         1        Bi     tau(   1) = (   0.5000000   0.5000000   0.5175674  )
         2        Bi     tau(   2) = (   0.0000000   0.0000000   1.4381739  )
         3        Pd     tau(   3) = (   0.0000000   0.0000000   0.0000000  )

   Crystallographic axes

     site n.     atom                  positions (cryst. coord.)
         1        Bi     tau(   1) = (  0.0000000  0.6323200 -0.3676800  )
         2        Bi     tau(   2) = (  0.0000000  0.3676800  0.3676800  )
         3        Pd     tau(   3) = (  0.0000000  0.0000000  0.0000000  )

     number of k points=    59 (tetrahedron method)
                       cart. coord. in units 2pi/alat
        k(    1) = (   0.0000000   0.0000000   0.0000000), wk =   0.0019531
        k(    2) = (  -0.1250000   0.0000000   0.0319572), wk =   0.0156250
        k(    3) = (  -0.2500000   0.0000000   0.0639144), wk =   0.0156250
        k(    4) = (  -0.3750000   0.0000000   0.0958716), wk =   0.0156250
        k(    5) = (   0.5000000   0.0000000  -0.1278288), wk =   0.0078125
        k(    6) = (  -0.1250000   0.1250000   0.0639144), wk =   0.0156250
        k(    7) = (  -0.2500000   0.1250000   0.0958716), wk =   0.0312500
        k(    8) = (  -0.3750000   0.1250000   0.1278288), wk =   0.0312500
        k(    9) = (   0.5000000   0.1250000  -0.0958716), wk =   0.0312500
        k(   10) = (   0.3750000   0.1250000  -0.0639144), wk =   0.0312500
        k(   11) = (   0.2500000   0.1250000  -0.0319572), wk =   0.0312500
        k(   12) = (   0.1250000   0.1250000   0.0000000), wk =   0.0078125
        k(   13) = (  -0.2500000   0.2500000   0.1278288), wk =   0.0156250
        k(   14) = (  -0.3750000   0.2500000   0.1597860), wk =   0.0312500
        k(   15) = (   0.5000000   0.2500000  -0.0639144), wk =   0.0312500
        k(   16) = (   0.3750000   0.2500000  -0.0319572), wk =   0.0312500
        k(   17) = (   0.2500000   0.2500000   0.0000000), wk =   0.0078125
        k(   18) = (  -0.3750000   0.3750000   0.1917431), wk =   0.0156250
        k(   19) = (   0.5000000   0.3750000  -0.0319572), wk =   0.0312500
        k(   20) = (   0.3750000   0.3750000   0.0000000), wk =   0.0078125
        k(   21) = (   0.5000000  -0.5000000  -0.2556575), wk =   0.0039062
        k(   22) = (   0.0000000   0.0000000   0.0639144), wk =   0.0039062
        k(   23) = (  -0.1250000   0.0000000   0.0958716), wk =   0.0156250
        k(   24) = (  -0.2500000   0.0000000   0.1278288), wk =   0.0156250
        k(   25) = (   0.6250000   0.0000000  -0.0958716), wk =   0.0156250
        k(   26) = (   0.5000000   0.0000000  -0.0639144), wk =   0.0156250
        k(   27) = (   0.3750000   0.0000000  -0.0319572), wk =   0.0156250
        k(   28) = (   0.2500000   0.0000000   0.0000000), wk =   0.0078125
        k(   29) = (  -0.1250000   0.1250000   0.1278288), wk =   0.0156250
        k(   30) = (  -0.2500000   0.1250000   0.1597860), wk =   0.0312500
        k(   31) = (   0.6250000   0.1250000  -0.0639144), wk =   0.0312500
        k(   32) = (   0.5000000   0.1250000  -0.0319572), wk =   0.0312500
        k(   33) = (   0.3750000   0.1250000   0.0000000), wk =   0.0156250
        k(   34) = (  -0.2500000   0.2500000   0.1917431), wk =   0.0156250
        k(   35) = (   0.6250000   0.2500000  -0.0319572), wk =   0.0312500
        k(   36) = (   0.5000000   0.2500000   0.0000000), wk =   0.0156250
        k(   37) = (   0.2500000   0.2500000   0.0639144), wk =   0.0156250
        k(   38) = (   0.6250000  -0.6250000  -0.2556575), wk =   0.0078125
        k(   39) = (   0.3750000  -0.6250000  -0.1917431), wk =   0.0156250
        k(   40) = (   0.2500000  -0.6250000  -0.1597860), wk =   0.0312500
        k(   41) = (   0.5000000  -0.5000000  -0.1917431), wk =   0.0078125
        k(   42) = (   0.3750000  -0.5000000  -0.1597860), wk =   0.0312500
        k(   43) = (   0.2500000  -0.5000000  -0.1278288), wk =   0.0156250
        k(   44) = (   0.3750000  -0.3750000  -0.1278288), wk =   0.0156250
        k(   45) = (   0.0000000   0.0000000   0.1278288), wk =   0.0039062
        k(   46) = (  -0.1250000   0.0000000   0.1597860), wk =   0.0156250
        k(   47) = (   0.7500000   0.0000000  -0.0639144), wk =   0.0156250
        k(   48) = (   0.6250000   0.0000000  -0.0319572), wk =   0.0156250
        k(   49) = (   0.5000000   0.0000000   0.0000000), wk =   0.0078125
        k(   50) = (  -0.1250000   0.1250000   0.1917431), wk =   0.0156250
        k(   51) = (   0.7500000   0.1250000  -0.0319572), wk =   0.0312500
        k(   52) = (   0.6250000   0.1250000   0.0000000), wk =   0.0156250
        k(   53) = (   0.7500000  -0.7500000  -0.2556575), wk =   0.0078125
        k(   54) = (   0.5000000  -0.5000000  -0.1278288), wk =   0.0039062
        k(   55) = (   0.0000000   0.0000000   0.1917431), wk =   0.0039062
        k(   56) = (   0.8750000   0.0000000  -0.0319572), wk =   0.0156250
        k(   57) = (   0.7500000   0.0000000   0.0000000), wk =   0.0078125
        k(   58) = (   0.8750000  -0.8750000  -0.2556575), wk =   0.0078125
        k(   59) = (   0.0000000   0.0000000  -0.2556575), wk =   0.0019531

                       cryst. coord.
        k(    1) = (   0.0000000   0.0000000   0.0000000), wk =   0.0019531
        k(    2) = (   0.0000000   0.0000000   0.1250000), wk =   0.0156250
        k(    3) = (   0.0000000   0.0000000   0.2500000), wk =   0.0156250
        k(    4) = (   0.0000000   0.0000000   0.3750000), wk =   0.0156250
        k(    5) = (   0.0000000   0.0000000  -0.5000000), wk =   0.0078125
        k(    6) = (   0.0000000   0.1250000   0.1250000), wk =   0.0156250
        k(    7) = (   0.0000000   0.1250000   0.2500000), wk =   0.0312500
        k(    8) = (   0.0000000   0.1250000   0.3750000), wk =   0.0312500
        k(    9) = (   0.0000000   0.1250000  -0.5000000), wk =   0.0312500
        k(   10) = (  -0.0000000   0.1250000  -0.3750000), wk =   0.0312500
        k(   11) = (   0.0000000   0.1250000  -0.2500000), wk =   0.0312500
        k(   12) = (   0.0000000   0.1250000  -0.1250000), wk =   0.0078125
        k(   13) = (   0.0000000   0.2500000   0.2500000), wk =   0.0156250
        k(   14) = (   0.0000000   0.2500000   0.3750000), wk =   0.0312500
        k(   15) = (   0.0000000   0.2500000  -0.5000000), wk =   0.0312500
        k(   16) = (  -0.0000000   0.2500000  -0.3750000), wk =   0.0312500
        k(   17) = (   0.0000000   0.2500000  -0.2500000), wk =   0.0078125
        k(   18) = (   0.0000000   0.3750000   0.3750000), wk =   0.0156250
        k(   19) = (   0.0000000   0.3750000  -0.5000000), wk =   0.0312500
        k(   20) = (   0.0000000   0.3750000  -0.3750000), wk =   0.0078125
        k(   21) = (   0.0000000  -0.5000000  -0.5000000), wk =   0.0039062
        k(   22) = (   0.1250000   0.1250000   0.1250000), wk =   0.0039062
        k(   23) = (   0.1250000   0.1250000   0.2500000), wk =   0.0156250
        k(   24) = (   0.1250000   0.1250000   0.3750000), wk =   0.0156250
        k(   25) = (   0.1250000   0.1250000  -0.5000000), wk =   0.0156250
        k(   26) = (   0.1250000   0.1250000  -0.3750000), wk =   0.0156250
        k(   27) = (   0.1250000   0.1250000  -0.2500000), wk =   0.0156250
        k(   28) = (   0.1250000   0.1250000  -0.1250000), wk =   0.0078125
        k(   29) = (   0.1250000   0.2500000   0.2500000), wk =   0.0156250
        k(   30) = (   0.1250000   0.2500000   0.3750000), wk =   0.0312500
        k(   31) = (   0.1250000   0.2500000  -0.5000000), wk =   0.0312500
        k(   32) = (   0.1250000   0.2500000  -0.3750000), wk =   0.0312500
        k(   33) = (   0.1250000   0.2500000  -0.2500000), wk =   0.0156250
        k(   34) = (   0.1250000   0.3750000   0.3750000), wk =   0.0156250
        k(   35) = (   0.1250000   0.3750000  -0.5000000), wk =   0.0312500
        k(   36) = (   0.1250000   0.3750000  -0.3750000), wk =   0.0156250
        k(   37) = (   0.1250000   0.3750000  -0.1250000), wk =   0.0156250
        k(   38) = (   0.1250000  -0.5000000  -0.5000000), wk =   0.0078125
        k(   39) = (   0.1250000  -0.5000000  -0.2500000), wk =   0.0156250
        k(   40) = (   0.1250000  -0.5000000  -0.1250000), wk =   0.0312500
        k(   41) = (   0.1250000  -0.3750000  -0.3750000), wk =   0.0078125
        k(   42) = (   0.1250000  -0.3750000  -0.2500000), wk =   0.0312500
        k(   43) = (   0.1250000  -0.3750000  -0.1250000), wk =   0.0156250
        k(   44) = (   0.1250000  -0.2500000  -0.2500000), wk =   0.0156250
        k(   45) = (   0.2500000   0.2500000   0.2500000), wk =   0.0039062
        k(   46) = (   0.2500000   0.2500000   0.3750000), wk =   0.0156250
        k(   47) = (   0.2500000   0.2500000  -0.5000000), wk =   0.0156250
        k(   48) = (   0.2500000   0.2500000  -0.3750000), wk =   0.0156250
        k(   49) = (   0.2500000   0.2500000  -0.2500000), wk =   0.0078125
        k(   50) = (   0.2500000   0.3750000   0.3750000), wk =   0.0156250
        k(   51) = (   0.2500000   0.3750000  -0.5000000), wk =   0.0312500
        k(   52) = (   0.2500000   0.3750000  -0.3750000), wk =   0.0156250
        k(   53) = (   0.2500000  -0.5000000  -0.5000000), wk =   0.0078125
        k(   54) = (   0.2500000  -0.2500000  -0.2500000), wk =   0.0039062
        k(   55) = (   0.3750000   0.3750000   0.3750000), wk =   0.0039062
        k(   56) = (   0.3750000   0.3750000  -0.5000000), wk =   0.0156250
        k(   57) = (   0.3750000   0.3750000  -0.3750000), wk =   0.0078125
        k(   58) = (   0.3750000  -0.5000000  -0.5000000), wk =   0.0078125
        k(   59) = (  -0.5000000  -0.5000000  -0.5000000), wk =   0.0019531

     Dense  grid:   108697 G-vectors     FFT dimensions: ( 100, 100, 100)

     Smooth grid:    32245 G-vectors     FFT dimensions: (  72,  72,  72)

     Dynamical RAM for                 wfc:       4.91 MB

     Dynamical RAM for     wfc (w. buffer):       4.91 MB

     Dynamical RAM for           str. fact:       0.83 MB

     Dynamical RAM for           local pot:       0.00 MB

     Dynamical RAM for          nlocal pot:       1.57 MB

     Dynamical RAM for                qrad:       9.76 MB

     Dynamical RAM for          rho,v,vnew:      27.86 MB

     Dynamical RAM for           G-vectors:       1.62 MB

     Dynamical RAM for          h,s,v(r/c):       1.17 MB

     Dynamical RAM for          <psi|beta>:       0.50 MB

     Dynamical RAM for                 psi:       9.82 MB

     Dynamical RAM for                hpsi:       9.82 MB

     Dynamical RAM for                spsi:       9.82 MB

     Dynamical RAM for      wfcinit/wfcrot:       7.96 MB

     Dynamical RAM for           addusdens:     253.76 MB

     Estimated static dynamical RAM per process >      63.05 MB

     Estimated max dynamical RAM per process >     316.82 MB

     Estimated total dynamical RAM >       1.24 GB

     The potential is recalculated from file :
     ./Bi2Pd/Bi2Pd.save/charge-density

     Starting wfcs are   54 randomized atomic wfcs +  106 random wfcs

     Band Structure Calculation
     Davidson diagonalization with overlap

     Computing kpt #:     1  of    59
     total cpu time spent up to now is       13.0 secs

     Computing kpt #:     2  of    59
     total cpu time spent up to now is       25.3 secs

     Computing kpt #:     3  of    59
     total cpu time spent up to now is       38.7 secs

     Computing kpt #:     4  of    59
     total cpu time spent up to now is       54.0 secs

     Computing kpt #:     5  of    59
     total cpu time spent up to now is       68.8 secs

     Computing kpt #:     6  of    59
     total cpu time spent up to now is       81.3 secs

     Computing kpt #:     7  of    59
     total cpu time spent up to now is       93.5 secs

     Computing kpt #:     8  of    59
     total cpu time spent up to now is      105.9 secs

     Computing kpt #:     9  of    59
     total cpu time spent up to now is      119.5 secs

     Computing kpt #:    10  of    59
     total cpu time spent up to now is      133.4 secs

     Computing kpt #:    11  of    59
     total cpu time spent up to now is      145.7 secs

     Computing kpt #:    12  of    59
     total cpu time spent up to now is      157.8 secs

     Computing kpt #:    13  of    59
     total cpu time spent up to now is      170.1 secs

     Computing kpt #:    14  of    59
     total cpu time spent up to now is      183.6 secs

     Computing kpt #:    15  of    59
     total cpu time spent up to now is      196.1 secs

     Computing kpt #:    16  of    59
     total cpu time spent up to now is      209.6 secs

     Computing kpt #:    17  of    59
     total cpu time spent up to now is      221.7 secs

     Computing kpt #:    18  of    59
     total cpu time spent up to now is      234.2 secs

     Computing kpt #:    19  of    59
     total cpu time spent up to now is      246.4 secs

     Computing kpt #:    20  of    59
     total cpu time spent up to now is      258.8 secs

     Computing kpt #:    21  of    59
     total cpu time spent up to now is      271.1 secs

     Computing kpt #:    22  of    59
     total cpu time spent up to now is      286.3 secs

     Computing kpt #:    23  of    59
     total cpu time spent up to now is      298.6 secs

     Computing kpt #:    24  of    59
     total cpu time spent up to now is      311.0 secs

     Computing kpt #:    25  of    59
     total cpu time spent up to now is      323.4 secs

     Computing kpt #:    26  of    59
     total cpu time spent up to now is      337.2 secs

     Computing kpt #:    27  of    59
     total cpu time spent up to now is      350.7 secs

     Computing kpt #:    28  of    59
     total cpu time spent up to now is      362.8 secs

     Computing kpt #:    29  of    59
     total cpu time spent up to now is      375.2 secs

     Computing kpt #:    30  of    59
     total cpu time spent up to now is      387.5 secs

     Computing kpt #:    31  of    59
     total cpu time spent up to now is      399.9 secs

     Computing kpt #:    32  of    59
     total cpu time spent up to now is      413.6 secs

     Computing kpt #:    33  of    59
     total cpu time spent up to now is      426.0 secs

     Computing kpt #:    34  of    59
     total cpu time spent up to now is      438.4 secs

     Computing kpt #:    35  of    59
     total cpu time spent up to now is      452.1 secs

     Computing kpt #:    36  of    59
     total cpu time spent up to now is      465.8 secs

     Computing kpt #:    37  of    59
     total cpu time spent up to now is      478.0 secs

     Computing kpt #:    38  of    59
     total cpu time spent up to now is      490.5 secs

     Computing kpt #:    39  of    59
     total cpu time spent up to now is      503.0 secs

     Computing kpt #:    40  of    59
     total cpu time spent up to now is      516.8 secs

     Computing kpt #:    41  of    59
     total cpu time spent up to now is      529.1 secs

     Computing kpt #:    42  of    59
     total cpu time spent up to now is      541.6 secs

     Computing kpt #:    43  of    59
     total cpu time spent up to now is      555.6 secs

     Computing kpt #:    44  of    59
     total cpu time spent up to now is      568.0 secs

     Computing kpt #:    45  of    59
     total cpu time spent up to now is      581.3 secs

     Computing kpt #:    46  of    59
     total cpu time spent up to now is      593.5 secs

     Computing kpt #:    47  of    59
     total cpu time spent up to now is      605.8 secs

     Computing kpt #:    48  of    59
     total cpu time spent up to now is      618.5 secs

     Computing kpt #:    49  of    59
     total cpu time spent up to now is      632.3 secs

     Computing kpt #:    50  of    59
     total cpu time spent up to now is      644.7 secs

     Computing kpt #:    51  of    59
     total cpu time spent up to now is      657.1 secs

     Computing kpt #:    52  of    59
     total cpu time spent up to now is      669.5 secs

     Computing kpt #:    53  of    59
     total cpu time spent up to now is      682.1 secs

     Computing kpt #:    54  of    59
     total cpu time spent up to now is      694.6 secs

     Computing kpt #:    55  of    59
     total cpu time spent up to now is      706.8 secs

     Computing kpt #:    56  of    59
     total cpu time spent up to now is      719.1 secs

     Computing kpt #:    57  of    59
     total cpu time spent up to now is      731.5 secs

     Computing kpt #:    58  of    59
     total cpu time spent up to now is      744.0 secs

     Computing kpt #:    59  of    59
     total cpu time spent up to now is      756.2 secs

     ethr =  2.50E-11,  avg # of iterations = 41.1

     total cpu time spent up to now is      756.4 secs

     End of band structure calculation

          k = 0.0000 0.0000 0.0000 (  4023 PWs)   bands (ev):

   -11.9952 -11.9952 -11.9929 -11.9929 -11.9881 -11.9881 -11.9612 -11.9612
    -9.0506  -9.0506  -9.0489  -9.0489  -9.0242  -9.0242  -8.9743  -8.9743
    -8.9202  -8.9202  -8.9136  -8.9136  -0.8878  -0.8878   0.8359   0.8359
     6.2095   6.2095   8.4378   8.4378   8.8986   8.8986   9.3160   9.3160
     9.7280   9.7280   9.7978   9.7978  12.4282  12.4282  14.5963  14.5963
    15.0102  15.0102  15.5038  15.5038  16.5243  16.5243  16.8053  16.8053
    18.5839  18.5839  19.6187  19.6187  20.9005  20.9005  21.3231  21.3231
    23.3122  23.3122  24.1907  24.1907  24.5176  24.5176  24.5293  24.5293
    25.2430  25.2430  26.1642  26.1642  26.4500  26.4500  26.6666  26.6666
    27.9295  27.9295  28.4904  28.4904  30.7690  30.7690  31.4035  31.4035
    32.1167  32.1167  32.6611  32.6611  32.7003  32.7003  32.9927  32.9927
    33.9767  33.9767  34.5297  34.5297  34.9973  34.9973  35.1919  35.1919
    35.5434  35.5434  36.9811  36.9811  37.3747  37.3747  37.4620  37.4620
    37.4894  37.4894  37.4985  37.4985  37.7257  37.7257  37.9785  37.9785
    38.3344  38.3344  41.3346  41.3346  42.4655  42.4655  42.8055  42.8055
    42.8220  42.8220  43.6490  43.6490  45.6442  45.6442  45.7345  45.7345
    45.9025  45.9025  49.4282  49.4282  50.1885  50.1885  50.5893  50.5893
    50.8675  50.8675  51.0161  51.0161  51.8145  51.8145  52.0514  52.0514
    52.3693  52.3693  53.1068  53.1068  54.6846  54.6846  55.4143  55.4143
    55.8452  55.8452  56.3206  56.3206  56.6151  56.6151  56.7662  56.7662

     occupation numbers 
     1.0000   1.0000   1.0000   1.0000   1.0000   1.0000   1.0000   1.0000
     1.0000   1.0000   1.0000   1.0000   1.0000   1.0000   1.0000   1.0000
     1.0000   1.0000   1.0000   1.0000   1.0000   1.0000   1.0000   1.0000
     1.0000   1.0000   1.0000   1.0000   1.0000   1.0000   1.0000   1.0000
     1.0000   1.0000   1.0000   1.0000   1.0000   1.0000  -0.1430  -0.1430
     0.0000   0.0000   0.0000   0.0000   0.0000   0.0000   0.0000   0.0000
     0.0000   0.0000   0.0000   0.0000   0.0000   0.0000   0.0000   0.0000
     0.0000   0.0000   0.0000   0.0000   0.0000   0.0000   0.0000   0.0000
     0.0000   0.0000   0.0000   0.0000   0.0000   0.0000   0.0000   0.0000
     0.0000   0.0000   0.0000   0.0000   0.0000   0.0000   0.0000   0.0000
     0.0000   0.0000   0.0000   0.0000   0.0000   0.0000   0.0000   0.0000
     0.0000   0.0000   0.0000   0.0000   0.0000   0.0000   0.0000   0.0000
     0.0000   0.0000   0.0000   0.0000   0.0000   0.0000   0.0000   0.0000
     0.0000   0.0000   0.0000   0.0000   0.0000   0.0000   0.0000   0.0000
     0.0000   0.0000   0.0000   0.0000   0.0000   0.0000   0.0000   0.0000
     0.0000   0.0000   0.0000   0.0000   0.0000   0.0000   0.0000   0.0000
     0.0000   0.0000   0.0000   0.0000   0.0000   0.0000   0.0000   0.0000
     0.0000   0.0000   0.0000   0.0000   0.0000   0.0000   0.0000   0.0000
     0.0000   0.0000   0.0000   0.0000   0.0000   0.0000   0.0000   0.0000
     0.0000   0.0000   0.0000   0.0000   0.0000   0.0000   0.0000   0.0000

          k =-0.1250 0.0000 0.0320 (  4002 PWs)   bands (ev):

   -11.9915 -11.9915 -11.9894 -11.9894 -11.9841 -11.9841 -11.9611 -11.9611
    -9.0413  -9.0413  -9.0395  -9.0395  -9.0176  -9.0176  -8.9709  -8.9709
    -8.9269  -8.9269  -8.9205  -8.9205  -0.6889  -0.6889   0.9397   0.9397
     6.4763   6.4763   8.4683   8.4683   8.8678   8.8678   9.2821   9.2821
     9.6697   9.6697   9.7198   9.7198  11.9429  11.9429  13.1152  13.1152
    14.4760  14.4760  15.4395  15.4395  16.0503  16.0503  18.0162  18.0162
    19.1696  19.1696  20.7744  20.7744  21.2976  21.2976  21.7739  21.7739
    22.4117  22.4117  22.8855  22.8855  24.0401  24.0401  24.4745  24.4745
    25.9049  25.9049  26.3957  26.3957  26.9628  26.9628  27.1816  27.1816
    27.9355  27.9355  28.7258  28.7258  29.6523  29.6523  29.8911  29.8911
    31.5222  31.5222  31.9729  31.9729  33.1776  33.1776  34.1074  34.1074
    34.3620  34.3620  34.4372  34.4372  35.1388  35.1388  36.0858  36.0858
    36.3044  36.3044  36.3983  36.3983  36.8449  36.8449  37.3508  37.3508
    37.6467  37.6467  38.1294  38.1294  38.3617  38.3617  39.6328  39.6328
    40.3190  40.3190  41.0419  41.0419  41.3460  41.3460  42.4346  42.4346
    42.6099  42.6099  44.5125  44.5125  46.2694  46.2694  46.9149  46.9149
    47.1712  47.1712  48.1542  48.1542  49.1841  49.1841  50.4381  50.4381
    50.7609  50.7609  50.9939  50.9939  51.4562  51.4562  52.1435  52.1435
    52.3076  52.3076  52.8294  52.8294  53.1428  53.1428  53.1856  53.1856
    54.7142  54.7142  55.4316  55.4316  55.8610  55.8610  56.5930  56.5930

     occupation numbers 
     1.0000   1.0000   1.0000   1.0000   1.0000   1.0000   1.0000   1.0000
     1.0000   1.0000   1.0000   1.0000   1.0000   1.0000   1.0000   1.0000
     1.0000   1.0000   1.0000   1.0000   1.0000   1.0000   1.0000   1.0000
     1.0000   1.0000   1.0000   1.0000   1.0000   1.0000   1.0000   1.0000
     1.0000   1.0000   1.0000   1.0000   1.0000   1.0000   0.2432   0.2432
    -0.0014  -0.0014   0.0000   0.0000   0.0000   0.0000   0.0000   0.0000
     0.0000   0.0000   0.0000   0.0000   0.0000   0.0000   0.0000   0.0000
     0.0000   0.0000   0.0000   0.0000   0.0000   0.0000   0.0000   0.0000
     0.0000   0.0000   0.0000   0.0000   0.0000   0.0000   0.0000   0.0000
     0.0000   0.0000   0.0000   0.0000   0.0000   0.0000   0.0000   0.0000
     0.0000   0.0000   0.0000   0.0000   0.0000   0.0000   0.0000   0.0000
     0.0000   0.0000   0.0000   0.0000   0.0000   0.0000   0.0000   0.0000
     0.0000   0.0000   0.0000   0.0000   0.0000   0.0000   0.0000   0.0000
     0.0000   0.0000   0.0000   0.0000   0.0000   0.0000   0.0000   0.0000
     0.0000   0.0000   0.0000   0.0000   0.0000   0.0000   0.0000   0.0000
     0.0000   0.0000   0.0000   0.0000   0.0000   0.0000   0.0000   0.0000
     0.0000   0.0000   0.0000   0.0000   0.0000   0.0000   0.0000   0.0000
     0.0000   0.0000   0.0000   0.0000   0.0000   0.0000   0.0000   0.0000
     0.0000   0.0000   0.0000   0.0000   0.0000   0.0000   0.0000   0.0000
     0.0000   0.0000   0.0000   0.0000   0.0000   0.0000   0.0000   0.0000

          k =-0.2500 0.0000 0.0639 (  4015 PWs)   bands (ev):

   -11.9904 -11.9904 -11.9842 -11.9842 -11.9701 -11.9701 -11.9581 -11.9581
    -9.0324  -9.0324  -9.0235  -9.0235  -8.9901  -8.9901  -8.9671  -8.9671
    -8.9369  -8.9369  -8.9304  -8.9304  -0.1203  -0.1203   1.2289   1.2289
     7.1729   7.1729   8.2551   8.2551   8.7068   8.7068   9.1336   9.1336
     9.4667   9.4667   9.6461   9.6461  10.5773  10.5773  11.2202  11.2202
    14.2590  14.2590  15.7812  15.7812  16.4157  16.4157  18.2455  18.2455
    19.4118  19.4118  19.7916  19.7916  20.5184  20.5184  21.9474  21.9474
    23.6723  23.6723  24.2632  24.2632  24.7744  24.7744  25.2034  25.2034
    25.5720  25.5720  25.8360  25.8360  26.3536  26.3536  26.6853  26.6853
    27.4622  27.4622  28.6099  28.6099  29.7304  29.7304  29.9069  29.9069
    30.6911  30.6911  31.3758  31.3758  32.2273  32.2273  33.9390  33.9390
    34.6632  34.6632  35.7187  35.7187  35.8632  35.8632  36.4108  36.4108
    36.7496  36.7496  37.6773  37.6773  37.8786  37.8786  38.2716  38.2716
    38.5695  38.5695  39.2954  39.2954  39.7952  39.7952  40.2741  40.2741
    40.5809  40.5809  40.8510  40.8510  42.6145  42.6145  43.7136  43.7136
    44.1441  44.1441  44.8287  44.8287  45.3023  45.3023  47.2364  47.2364
    47.2698  47.2698  47.5941  47.5941  48.3352  48.3352  48.9154  48.9154
    49.8011  49.8011  50.1645  50.1645  51.0722  51.0722  51.4661  51.4661
    51.7958  51.7958  52.8123  52.8123  53.0934  53.0934  53.3030  53.3030
    53.7611  53.7611  54.1167  54.1167  54.7520  54.7520  55.7386  55.7386

     occupation numbers 
     1.0000   1.0000   1.0000   1.0000   1.0000   1.0000   1.0000   1.0000
     1.0000   1.0000   1.0000   1.0000   1.0000   1.0000   1.0000   1.0000
     1.0000   1.0000   1.0000   1.0000   1.0000   1.0000   1.0000   1.0000
     1.0000   1.0000   1.0000   1.0000   1.0000   1.0000   1.0000   1.0000
     1.0000   1.0000   1.0000   1.0000   1.0000   1.0000   0.9970   0.9970
    -0.0117  -0.0117   0.0000   0.0000   0.0000   0.0000   0.0000   0.0000
     0.0000   0.0000   0.0000   0.0000   0.0000   0.0000   0.0000   0.0000
     0.0000   0.0000   0.0000   0.0000   0.0000   0.0000   0.0000   0.0000
     0.0000   0.0000   0.0000   0.0000   0.0000   0.0000   0.0000   0.0000
     0.0000   0.0000   0.0000   0.0000   0.0000   0.0000   0.0000   0.0000
     0.0000   0.0000   0.0000   0.0000   0.0000   0.0000   0.0000   0.0000
     0.0000   0.0000   0.0000   0.0000   0.0000   0.0000   0.0000   0.0000
     0.0000   0.0000   0.0000   0.0000   0.0000   0.0000   0.0000   0.0000
     0.0000   0.0000   0.0000   0.0000   0.0000   0.0000   0.0000   0.0000
     0.0000   0.0000   0.0000   0.0000   0.0000   0.0000   0.0000   0.0000
     0.0000   0.0000   0.0000   0.0000   0.0000   0.0000   0.0000   0.0000
     0.0000   0.0000   0.0000   0.0000   0.0000   0.0000   0.0000   0.0000
     0.0000   0.0000   0.0000   0.0000   0.0000   0.0000   0.0000   0.0000
     0.0000   0.0000   0.0000   0.0000   0.0000   0.0000   0.0000   0.0000
     0.0000   0.0000   0.0000   0.0000   0.0000   0.0000   0.0000   0.0000

          k =-0.3750 0.0000 0.0959 (  4018 PWs)   bands (ev):

   -11.9902 -11.9902 -11.9840 -11.9840 -11.9562 -11.9562 -11.9515 -11.9515
    -9.0321  -9.0321  -9.0170  -9.0170  -8.9818  -8.9818  -8.9618  -8.9618
    -8.9342  -8.9342  -8.9138  -8.9138   0.6762   0.6762   1.5746   1.5746
     6.9909   6.9909   7.7176   7.7176   8.6236   8.6236   8.9742   8.9742
     9.4376   9.4376   9.5048   9.5048   9.8823   9.8823  10.6272  10.6272
    13.9451  13.9451  16.0135  16.0135  16.7331  16.7331  17.3315  17.3315
    18.9516  18.9516  20.3381  20.3381  20.7132  20.7132  22.3630  22.3630
    22.6937  22.6937  23.5227  23.5227  24.3619  24.3619  25.0007  25.0007
    25.2224  25.2224  26.1130  26.1130  26.7442  26.7442  27.9134  27.9134
    28.3134  28.3134  28.9280  28.9280  29.6375  29.6375  29.7970  29.7970
    30.9930  30.9930  31.5631  31.5631  33.0984  33.0984  33.6811  33.6811
    34.3413  34.3413  35.2849  35.2849  36.1098  36.1098  36.8023  36.8023
    36.9162  36.9162  38.2135  38.2135  38.6870  38.6870  39.0517  39.0517
    39.8381  39.8381  40.3045  40.3045  40.4438  40.4438  40.8764  40.8764
    41.0912  41.0912  42.0171  42.0171  43.1615  43.1615  43.8714  43.8714
    43.9082  43.9082  45.3558  45.3558  45.6199  45.6199  46.9495  46.9495
    47.1061  47.1061  47.7827  47.7827  48.2634  48.2634  48.3564  48.3564
    49.7588  49.7588  50.0930  50.0930  50.5611  50.5611  51.1183  51.1183
    51.6211  51.6211  51.7107  51.7107  52.3032  52.3032  52.3458  52.3458
    52.9921  52.9921  54.5194  54.5194  54.8527  54.8527  55.2336  55.2336

     occupation numbers 
     1.0000   1.0000   1.0000   1.0000   1.0000   1.0000   1.0000   1.0000
     1.0000   1.0000   1.0000   1.0000   1.0000   1.0000   1.0000   1.0000
     1.0000   1.0000   1.0000   1.0000   1.0000   1.0000   1.0000   1.0000
     1.0000   1.0000   1.0000   1.0000   1.0000   1.0000   1.0000   1.0000
     1.0000   1.0000   1.0000   1.0000   1.0000   1.0000   1.0180   1.0180
    -0.0092  -0.0092   0.0000   0.0000   0.0000   0.0000   0.0000   0.0000
     0.0000   0.0000   0.0000   0.0000   0.0000   0.0000   0.0000   0.0000
     0.0000   0.0000   0.0000   0.0000   0.0000   0.0000   0.0000   0.0000
     0.0000   0.0000   0.0000   0.0000   0.0000   0.0000   0.0000   0.0000
     0.0000   0.0000   0.0000   0.0000   0.0000   0.0000   0.0000   0.0000
     0.0000   0.0000   0.0000   0.0000   0.0000   0.0000   0.0000   0.0000
     0.0000   0.0000   0.0000   0.0000   0.0000   0.0000   0.0000   0.0000
     0.0000   0.0000   0.0000   0.0000   0.0000   0.0000   0.0000   0.0000
     0.0000   0.0000   0.0000   0.0000   0.0000   0.0000   0.0000   0.0000
     0.0000   0.0000   0.0000   0.0000   0.0000   0.0000   0.0000   0.0000
     0.0000   0.0000   0.0000   0.0000   0.0000   0.0000   0.0000   0.0000
     0.0000   0.0000   0.0000   0.0000   0.0000   0.0000   0.0000   0.0000
     0.0000   0.0000   0.0000   0.0000   0.0000   0.0000   0.0000   0.0000
     0.0000   0.0000   0.0000   0.0000   0.0000   0.0000   0.0000   0.0000
     0.0000   0.0000   0.0000   0.0000   0.0000   0.0000   0.0000   0.0000

          k = 0.5000 0.0000-0.1278 (  4044 PWs)   bands (ev):

   -11.9901 -11.9901 -11.9851 -11.9851 -11.9506 -11.9506 -11.9489 -11.9489
    -9.0333  -9.0333  -9.0180  -9.0180  -8.9870  -8.9870  -8.9588  -8.9588
    -8.9254  -8.9254  -8.9017  -8.9017   1.1785   1.1785   1.6964   1.6964
     6.2465   6.2465   7.5738   7.5738   8.6805   8.6805   8.9403   8.9403
     9.2578   9.2578   9.6106   9.6106  10.1185  10.1185  10.6060  10.6060
    13.3028  13.3028  16.0729  16.0729  16.7233  16.7233  17.6929  17.6929
    18.3511  18.3511  20.5220  20.5220  21.6938  21.6938  22.1220  22.1220
    22.1426  22.1426  23.4088  23.4088  24.2812  24.2812  24.6695  24.6695
    25.0784  25.0784  25.1425  25.1425  26.0392  26.0392  27.9597  27.9597
    28.0746  28.0746  30.5782  30.5782  30.7119  30.7119  31.6098  31.6098
    31.8385  31.8385  32.0809  32.0809  32.6171  32.6171  32.8212  32.8212
    34.1806  34.1806  35.1952  35.1952  36.2850  36.2850  36.3296  36.3296
    37.1595  37.1595  37.1689  37.1689  38.0421  38.0421  38.6154  38.6154
    40.2605  40.2605  40.7163  40.7163  41.3864  41.3864  41.4513  41.4513
    41.8341  41.8341  42.1771  42.1771  43.4735  43.4735  43.8101  43.8101
    44.8606  44.8606  45.5262  45.5262  46.2755  46.2755  46.4397  46.4397
    46.6110  46.6110  47.9526  47.9526  48.3419  48.3419  48.6239  48.6239
    49.5150  49.5150  49.7974  49.7974  50.9829  50.9829  51.2035  51.2035
    51.3350  51.3350  51.4918  51.4918  52.0567  52.0567  52.3395  52.3395
    53.0842  53.0842  53.9833  53.9833  54.0581  54.0581  54.4059  54.4059

     occupation numbers 
     1.0000   1.0000   1.0000   1.0000   1.0000   1.0000   1.0000   1.0000
     1.0000   1.0000   1.0000   1.0000   1.0000   1.0000   1.0000   1.0000
     1.0000   1.0000   1.0000   1.0000   1.0000   1.0000   1.0000   1.0000
     1.0000   1.0000   1.0000   1.0000   1.0000   1.0000   1.0000   1.0000
     1.0000   1.0000   1.0000   1.0000   1.0000   1.0000   1.0000   1.0000
    -0.0006  -0.0006   0.0000   0.0000   0.0000   0.0000   0.0000   0.0000
     0.0000   0.0000   0.0000   0.0000   0.0000   0.0000   0.0000   0.0000
     0.0000   0.0000   0.0000   0.0000   0.0000   0.0000   0.0000   0.0000
     0.0000   0.0000   0.0000   0.0000   0.0000   0.0000   0.0000   0.0000
     0.0000   0.0000   0.0000   0.0000   0.0000   0.0000   0.0000   0.0000
     0.0000   0.0000   0.0000   0.0000   0.0000   0.0000   0.0000   0.0000
     0.0000   0.0000   0.0000   0.0000   0.0000   0.0000   0.0000   0.0000
     0.0000   0.0000   0.0000   0.0000   0.0000   0.0000   0.0000   0.0000
     0.0000   0.0000   0.0000   0.0000   0.0000   0.0000   0.0000   0.0000
     0.0000   0.0000   0.0000   0.0000   0.0000   0.0000   0.0000   0.0000
     0.0000   0.0000   0.0000   0.0000   0.0000   0.0000   0.0000   0.0000
     0.0000   0.0000   0.0000   0.0000   0.0000   0.0000   0.0000   0.0000
     0.0000   0.0000   0.0000   0.0000   0.0000   0.0000   0.0000   0.0000
     0.0000   0.0000   0.0000   0.0000   0.0000   0.0000   0.0000   0.0000
     0.0000   0.0000   0.0000   0.0000   0.0000   0.0000   0.0000   0.0000

          k =-0.1250 0.1250 0.0639 (  4006 PWs)   bands (ev):

   -11.9869 -11.9869 -11.9847 -11.9847 -11.9825 -11.9825 -11.9618 -11.9618
    -9.0304  -9.0304  -9.0269  -9.0269  -9.0143  -9.0143  -8.9682  -8.9682
    -8.9368  -8.9368  -8.9258  -8.9258  -0.4719  -0.4719   1.0056   1.0056
     6.8030   6.8030   8.5219   8.5219   8.8168   8.8168   9.2268   9.2268
     9.5204   9.5204   9.7477   9.7477  11.7477  11.7477  12.9242  12.9242
    13.5994  13.5994  14.5936  14.5936  15.2127  15.2127  19.1458  19.1458
    20.5614  20.5614  20.9855  20.9855  21.4940  21.4940  21.9839  21.9839
    22.1695  22.1695  22.9086  22.9086  23.3577  23.3577  23.8231  23.8231
    24.6883  24.6883  26.6026  26.6026  27.3420  27.3420  27.6703  27.6703
    28.6214  28.6214  29.2725  29.2725  29.8891  29.8891  30.3010  30.3010
    31.2569  31.2569  31.7390  31.7390  32.6017  32.6017  33.6011  33.6011
    33.8343  33.8343  34.0823  34.0823  35.7739  35.7739  35.9030  35.9030
    36.0210  36.0210  36.7841  36.7841  37.1520  37.1520  37.4478  37.4478
    37.8729  37.8729  38.7748  38.7748  38.9972  38.9972  40.0127  40.0127
    41.4036  41.4036  41.6977  41.6977  42.2936  42.2936  42.8479  42.8479
    43.1476  43.1476  45.3264  45.3264  45.7063  45.7063  46.5913  46.5913
    47.8675  47.8675  48.5746  48.5746  49.0995  49.0995  49.1677  49.1677
    49.3954  49.3954  50.9920  50.9920  51.1050  51.1050  51.3012  51.3012
    52.0598  52.0598  52.3176  52.3176  52.9789  52.9789  53.0990  53.0990
    53.6983  53.6983  54.7360  54.7360  54.9888  54.9888  55.5375  55.5375

     occupation numbers 
     1.0000   1.0000   1.0000   1.0000   1.0000   1.0000   1.0000   1.0000
     1.0000   1.0000   1.0000   1.0000   1.0000   1.0000   1.0000   1.0000
     1.0000   1.0000   1.0000   1.0000   1.0000   1.0000   1.0000   1.0000
     1.0000   1.0000   1.0000   1.0000   1.0000   1.0000   1.0000   1.0000
     1.0000   1.0000   1.0000   1.0000   1.0000   1.0000   0.4192   0.4192
    -0.0063  -0.0063   0.0000   0.0000   0.0000   0.0000   0.0000   0.0000
     0.0000   0.0000   0.0000   0.0000   0.0000   0.0000   0.0000   0.0000
     0.0000   0.0000   0.0000   0.0000   0.0000   0.0000   0.0000   0.0000
     0.0000   0.0000   0.0000   0.0000   0.0000   0.0000   0.0000   0.0000
     0.0000   0.0000   0.0000   0.0000   0.0000   0.0000   0.0000   0.0000
     0.0000   0.0000   0.0000   0.0000   0.0000   0.0000   0.0000   0.0000
     0.0000   0.0000   0.0000   0.0000   0.0000   0.0000   0.0000   0.0000
     0.0000   0.0000   0.0000   0.0000   0.0000   0.0000   0.0000   0.0000
     0.0000   0.0000   0.0000   0.0000   0.0000   0.0000   0.0000   0.0000
     0.0000   0.0000   0.0000   0.0000   0.0000   0.0000   0.0000   0.0000
     0.0000   0.0000   0.0000   0.0000   0.0000   0.0000   0.0000   0.0000
     0.0000   0.0000   0.0000   0.0000   0.0000   0.0000   0.0000   0.0000
     0.0000   0.0000   0.0000   0.0000   0.0000   0.0000   0.0000   0.0000
     0.0000   0.0000   0.0000   0.0000   0.0000   0.0000   0.0000   0.0000
     0.0000   0.0000   0.0000   0.0000   0.0000   0.0000   0.0000   0.0000

          k =-0.2500 0.1250 0.0959 (  4021 PWs)   bands (ev):

   -11.9852 -11.9852 -11.9787 -11.9787 -11.9694 -11.9694 -11.9599 -11.9599
    -9.0191  -9.0191  -9.0092  -9.0092  -8.9873  -8.9873  -8.9686  -8.9686
    -8.9441  -8.9441  -8.9380  -8.9380   0.1037   0.1037   1.2859   1.2859
     7.4564   7.4564   8.3473   8.3473   8.6126   8.6126   9.0489   9.0489
     9.3911   9.3911   9.6802   9.6802  10.8414  10.8414  11.4776  11.4776
    13.3343  13.3343  14.4670  14.4670  15.1973  15.1973  18.0776  18.0776
    20.2523  20.2523  20.8658  20.8658  21.5103  21.5103  21.9372  21.9372
    22.4620  22.4620  23.0624  23.0624  24.2757  24.2757  24.9142  24.9142
    25.2886  25.2886  26.2474  26.2474  26.6968  26.6968  27.9989  27.9989
    28.6088  28.6088  29.1766  29.1766  29.9801  29.9801  30.5956  30.5956
    30.8594  30.8594  31.3863  31.3863  32.7973  32.7973  33.9696  33.9696
    34.1133  34.1133  34.5965  34.5965  34.9973  34.9973  35.8154  35.8154
    36.4633  36.4633  36.8478  36.8478  38.0911  38.0911  38.8715  38.8715
    39.4553  39.4553  40.0550  40.0550  40.3280  40.3280  40.7986  40.7986
    41.4263  41.4263  42.3918  42.3918  43.7076  43.7076  44.2963  44.2963
    44.8934  44.8934  45.2823  45.2823  45.3994  45.3994  46.0818  46.0818
    46.6863  46.6863  47.2064  47.2064  48.3452  48.3452  48.5598  48.5598
    49.0618  49.0618  49.5868  49.5868  50.6058  50.6058  51.1180  51.1180
    51.5778  51.5778  51.7611  51.7611  52.3725  52.3725  52.4916  52.4916
    53.1042  53.1042  53.5652  53.5652  54.0965  54.0965  54.5291  54.5291

     occupation numbers 
     1.0000   1.0000   1.0000   1.0000   1.0000   1.0000   1.0000   1.0000
     1.0000   1.0000   1.0000   1.0000   1.0000   1.0000   1.0000   1.0000
     1.0000   1.0000   1.0000   1.0000   1.0000   1.0000   1.0000   1.0000
     1.0000   1.0000   1.0000   1.0000   1.0000   1.0000   1.0000   1.0000
     1.0000   1.0000   1.0000   1.0000   1.0000   1.0000   0.9942   0.9942
    -0.0453  -0.0453   0.0000   0.0000   0.0000   0.0000   0.0000   0.0000
     0.0000   0.0000   0.0000   0.0000   0.0000   0.0000   0.0000   0.0000
     0.0000   0.0000   0.0000   0.0000   0.0000   0.0000   0.0000   0.0000
     0.0000   0.0000   0.0000   0.0000   0.0000   0.0000   0.0000   0.0000
     0.0000   0.0000   0.0000   0.0000   0.0000   0.0000   0.0000   0.0000
     0.0000   0.0000   0.0000   0.0000   0.0000   0.0000   0.0000   0.0000
     0.0000   0.0000   0.0000   0.0000   0.0000   0.0000   0.0000   0.0000
     0.0000   0.0000   0.0000   0.0000   0.0000   0.0000   0.0000   0.0000
     0.0000   0.0000   0.0000   0.0000   0.0000   0.0000   0.0000   0.0000
     0.0000   0.0000   0.0000   0.0000   0.0000   0.0000   0.0000   0.0000
     0.0000   0.0000   0.0000   0.0000   0.0000   0.0000   0.0000   0.0000
     0.0000   0.0000   0.0000   0.0000   0.0000   0.0000   0.0000   0.0000
     0.0000   0.0000   0.0000   0.0000   0.0000   0.0000   0.0000   0.0000
     0.0000   0.0000   0.0000   0.0000   0.0000   0.0000   0.0000   0.0000
     0.0000   0.0000   0.0000   0.0000   0.0000   0.0000   0.0000   0.0000

          k =-0.3750 0.1250 0.1278 (  4017 PWs)   bands (ev):

   -11.9855 -11.9855 -11.9785 -11.9785 -11.9560 -11.9560 -11.9524 -11.9524
    -9.0206  -9.0206  -9.0022  -9.0022  -8.9855  -8.9855  -8.9595  -8.9595
    -8.9405  -8.9405  -8.9177  -8.9177   0.8848   0.8848   1.6603   1.6603
     7.1133   7.1133   7.7550   7.7550   8.5912   8.5912   8.9776   8.9776
     9.3645   9.3645   9.6050   9.6050  10.3970  10.3970  10.7853  10.7853
    13.3869  13.3869  14.6322  14.6322  15.5803  15.5803  16.6969  16.6969
    19.4419  19.4419  20.1598  20.1598  20.9304  20.9304  21.6821  21.6821
    22.6703  22.6703  23.5468  23.5468  24.4562  24.4562  25.0597  25.0597
    25.9312  25.9312  26.8382  26.8382  27.1505  27.1505  27.9226  27.9226
    28.9228  28.9228  29.4912  29.4912  29.9207  29.9207  30.4615  30.4615
    31.0327  31.0327  31.6565  31.6565  33.2136  33.2136  33.7961  33.7961
    34.4688  34.4688  35.3546  35.3546  36.0742  36.0742  36.2755  36.2755
    37.2863  37.2863  37.9442  37.9442  38.4821  38.4821  39.3093  39.3093
    39.8905  39.8905  40.2329  40.2329  41.2981  41.2981  41.5095  41.5095
    42.1002  42.1002  42.6931  42.6931  43.1705  43.1705  43.4106  43.4106
    44.6298  44.6298  44.9955  44.9955  45.5759  45.5759  46.3444  46.3444
    46.6216  46.6216  47.6415  47.6415  48.0421  48.0421  48.9978  48.9978
    49.3623  49.3623  49.4768  49.4768  49.9662  49.9662  50.2768  50.2768
    50.7613  50.7613  51.1261  51.1261  51.8335  51.8335  52.1067  52.1067
    52.7390  52.7390  53.3890  53.3890  54.0703  54.0703  54.6095  54.6095

     occupation numbers 
     1.0000   1.0000   1.0000   1.0000   1.0000   1.0000   1.0000   1.0000
     1.0000   1.0000   1.0000   1.0000   1.0000   1.0000   1.0000   1.0000
     1.0000   1.0000   1.0000   1.0000   1.0000   1.0000   1.0000   1.0000
     1.0000   1.0000   1.0000   1.0000   1.0000   1.0000   1.0000   1.0000
     1.0000   1.0000   1.0000   1.0000   1.0000   1.0000   1.0127   1.0127
    -0.0646  -0.0646   0.0000   0.0000   0.0000   0.0000   0.0000   0.0000
     0.0000   0.0000   0.0000   0.0000   0.0000   0.0000   0.0000   0.0000
     0.0000   0.0000   0.0000   0.0000   0.0000   0.0000   0.0000   0.0000
     0.0000   0.0000   0.0000   0.0000   0.0000   0.0000   0.0000   0.0000
     0.0000   0.0000   0.0000   0.0000   0.0000   0.0000   0.0000   0.0000
     0.0000   0.0000   0.0000   0.0000   0.0000   0.0000   0.0000   0.0000
     0.0000   0.0000   0.0000   0.0000   0.0000   0.0000   0.0000   0.0000
     0.0000   0.0000   0.0000   0.0000   0.0000   0.0000   0.0000   0.0000
     0.0000   0.0000   0.0000   0.0000   0.0000   0.0000   0.0000   0.0000
     0.0000   0.0000   0.0000   0.0000   0.0000   0.0000   0.0000   0.0000
     0.0000   0.0000   0.0000   0.0000   0.0000   0.0000   0.0000   0.0000
     0.0000   0.0000   0.0000   0.0000   0.0000   0.0000   0.0000   0.0000
     0.0000   0.0000   0.0000   0.0000   0.0000   0.0000   0.0000   0.0000
     0.0000   0.0000   0.0000   0.0000   0.0000   0.0000   0.0000   0.0000
     0.0000   0.0000   0.0000   0.0000   0.0000   0.0000   0.0000   0.0000

          k = 0.5000 0.1250-0.0959 (  4027 PWs)   bands (ev):

   -11.9860 -11.9860 -11.9792 -11.9792 -11.9506 -11.9506 -11.9491 -11.9491
    -9.0228  -9.0228  -9.0059  -9.0059  -8.9871  -8.9871  -8.9609  -8.9609
    -8.9280  -8.9280  -8.9041  -8.9041   1.3150   1.3150   1.8706   1.8706
     6.4624   6.4624   7.5405   7.5405   8.6420   8.6420   8.9416   8.9416
     9.1528   9.1528   9.7437   9.7437  10.4881  10.4881  10.6786  10.6786
    13.1981  13.1981  15.0572  15.0572  15.6181  15.6181  16.5882  16.5882
    18.8974  18.8974  19.8455  19.8455  20.1926  20.1926  21.6661  21.6661
    23.2644  23.2644  23.7084  23.7084  24.3283  24.3283  24.9972  24.9972
    25.3435  25.3435  26.3199  26.3199  26.5970  26.5970  28.4531  28.4531
    29.0696  29.0696  29.8212  29.8212  30.6636  30.6636  31.3307  31.3307
    32.2095  32.2095  32.5938  32.5938  33.7433  33.7433  34.3009  34.3009
    34.4815  34.4815  35.1049  35.1049  35.4885  35.4885  36.0115  36.0115
    37.1398  37.1398  37.2599  37.2599  39.0423  39.0423  39.6057  39.6057
    39.8411  39.8411  40.7937  40.7937  40.9668  40.9668  41.2726  41.2726
    42.0298  42.0298  42.4071  42.4071  42.9757  42.9757  43.5958  43.5958
    44.5936  44.5936  44.9762  44.9762  45.4861  45.4861  46.6852  46.6852
    47.7272  47.7272  48.0429  48.0429  48.2957  48.2957  48.8104  48.8104
    48.9733  48.9733  49.4798  49.4798  49.8170  49.8170  50.5505  50.5505
    51.0441  51.0441  51.4244  51.4244  51.6356  51.6356  52.1154  52.1154
    52.5171  52.5171  53.1129  53.1129  53.3787  53.3787  53.7410  53.7410

     occupation numbers 
     1.0000   1.0000   1.0000   1.0000   1.0000   1.0000   1.0000   1.0000
     1.0000   1.0000   1.0000   1.0000   1.0000   1.0000   1.0000   1.0000
     1.0000   1.0000   1.0000   1.0000   1.0000   1.0000   1.0000   1.0000
     1.0000   1.0000   1.0000   1.0000   1.0000   1.0000   1.0000   1.0000
     1.0000   1.0000   1.0000   1.0000   1.0000   1.0000   1.0000   1.0000
    -0.0506  -0.0506   0.0000   0.0000   0.0000   0.0000   0.0000   0.0000
     0.0000   0.0000   0.0000   0.0000   0.0000   0.0000   0.0000   0.0000
     0.0000   0.0000   0.0000   0.0000   0.0000   0.0000   0.0000   0.0000
     0.0000   0.0000   0.0000   0.0000   0.0000   0.0000   0.0000   0.0000
     0.0000   0.0000   0.0000   0.0000   0.0000   0.0000   0.0000   0.0000
     0.0000   0.0000   0.0000   0.0000   0.0000   0.0000   0.0000   0.0000
     0.0000   0.0000   0.0000   0.0000   0.0000   0.0000   0.0000   0.0000
     0.0000   0.0000   0.0000   0.0000   0.0000   0.0000   0.0000   0.0000
     0.0000   0.0000   0.0000   0.0000   0.0000   0.0000   0.0000   0.0000
     0.0000   0.0000   0.0000   0.0000   0.0000   0.0000   0.0000   0.0000
     0.0000   0.0000   0.0000   0.0000   0.0000   0.0000   0.0000   0.0000
     0.0000   0.0000   0.0000   0.0000   0.0000   0.0000   0.0000   0.0000
     0.0000   0.0000   0.0000   0.0000   0.0000   0.0000   0.0000   0.0000
     0.0000   0.0000   0.0000   0.0000   0.0000   0.0000   0.0000   0.0000
     0.0000   0.0000   0.0000   0.0000   0.0000   0.0000   0.0000   0.0000

          k = 0.3750 0.1250-0.0639 (  4023 PWs)   bands (ev):

   -11.9863 -11.9863 -11.9780 -11.9780 -11.9562 -11.9562 -11.9521 -11.9521
    -9.0210  -9.0210  -9.0020  -9.0020  -8.9834  -8.9834  -8.9616  -8.9616
    -8.9412  -8.9412  -8.9171  -8.9171   0.7940   0.7940   1.7931   1.7931
     7.2015   7.2015   7.7335   7.7335   8.4575   8.4575   8.9979   8.9979
     9.3523   9.3523   9.6008   9.6008  10.1355  10.1355  10.6408  10.6408
    13.8912  13.8912  14.7917  14.7917  15.6210  15.6210  17.1197  17.1197
    19.1195  19.1195  19.9389  19.9389  20.9307  20.9307  21.6959  21.6959
    22.2717  22.2717  23.3737  23.3737  24.3127  24.3127  24.6813  24.6813
    25.3511  25.3511  26.7733  26.7733  27.9462  27.9462  28.5749  28.5749
    29.1440  29.1440  29.6552  29.6552  29.8782  29.8782  30.4880  30.4880
    31.3692  31.3692  32.0437  32.0437  33.1608  33.1608  34.1336  34.1336
    34.6002  34.6002  34.7663  34.7663  36.0602  36.0602  36.4822  36.4822
    37.2094  37.2094  37.4571  37.4571  38.5395  38.5395  39.0067  39.0067
    39.5456  39.5456  39.9748  39.9748  40.7487  40.7487  41.4027  41.4027
    42.0099  42.0099  42.4557  42.4557  42.7945  42.7945  43.4187  43.4187
    44.5892  44.5892  45.3787  45.3787  46.2082  46.2082  46.6360  46.6360
    46.9990  46.9990  47.9265  47.9265  48.0950  48.0950  48.9516  48.9516
    49.3995  49.3995  49.8896  49.8896  50.0851  50.0851  50.2960  50.2960
    50.9710  50.9710  51.7359  51.7359  51.8182  51.8182  51.9696  51.9696
    52.8354  52.8354  53.2566  53.2566  53.6642  53.6642  54.4413  54.4413

     occupation numbers 
     1.0000   1.0000   1.0000   1.0000   1.0000   1.0000   1.0000   1.0000
     1.0000   1.0000   1.0000   1.0000   1.0000   1.0000   1.0000   1.0000
     1.0000   1.0000   1.0000   1.0000   1.0000   1.0000   1.0000   1.0000
     1.0000   1.0000   1.0000   1.0000   1.0000   1.0000   1.0000   1.0000
     1.0000   1.0000   1.0000   1.0000   1.0000   1.0000   1.0098   1.0098
    -0.0836  -0.0836   0.0000   0.0000   0.0000   0.0000   0.0000   0.0000
     0.0000   0.0000   0.0000   0.0000   0.0000   0.0000   0.0000   0.0000
     0.0000   0.0000   0.0000   0.0000   0.0000   0.0000   0.0000   0.0000
     0.0000   0.0000   0.0000   0.0000   0.0000   0.0000   0.0000   0.0000
     0.0000   0.0000   0.0000   0.0000   0.0000   0.0000   0.0000   0.0000
     0.0000   0.0000   0.0000   0.0000   0.0000   0.0000   0.0000   0.0000
     0.0000   0.0000   0.0000   0.0000   0.0000   0.0000   0.0000   0.0000
     0.0000   0.0000   0.0000   0.0000   0.0000   0.0000   0.0000   0.0000
     0.0000   0.0000   0.0000   0.0000   0.0000   0.0000   0.0000   0.0000
     0.0000   0.0000   0.0000   0.0000   0.0000   0.0000   0.0000   0.0000
     0.0000   0.0000   0.0000   0.0000   0.0000   0.0000   0.0000   0.0000
     0.0000   0.0000   0.0000   0.0000   0.0000   0.0000   0.0000   0.0000
     0.0000   0.0000   0.0000   0.0000   0.0000   0.0000   0.0000   0.0000
     0.0000   0.0000   0.0000   0.0000   0.0000   0.0000   0.0000   0.0000
     0.0000   0.0000   0.0000   0.0000   0.0000   0.0000   0.0000   0.0000

          k = 0.2500 0.1250-0.0320 (  4018 PWs)   bands (ev):

   -11.9862 -11.9862 -11.9783 -11.9783 -11.9699 -11.9699 -11.9587 -11.9587
    -9.0196  -9.0196  -9.0089  -9.0089  -8.9880  -8.9880  -8.9651  -8.9651
    -8.9456  -8.9456  -8.9391  -8.9391   0.0248   0.0248   1.4304   1.4304
     7.2309   7.2309   8.3858   8.3858   8.5952   8.5952   9.0755   9.0755
     9.4412   9.4412   9.6575   9.6575  10.8666  10.8666  11.2291  11.2291
    13.6743  13.6743  14.3565  14.3565  15.5842  15.5842  18.8490  18.8490
    19.6158  19.6158  20.5650  20.5650  21.3605  21.3605  21.8593  21.8593
    22.3353  22.3353  23.1001  23.1001  23.8051  23.8051  24.4681  24.4681
    25.4975  25.4975  25.9133  25.9133  26.6725  26.6725  27.9600  27.9600
    28.9000  28.9000  29.6711  29.6711  30.2458  30.2458  30.9207  30.9207
    31.4557  31.4557  32.2819  32.2819  33.3931  33.3931  33.7730  33.7730
    33.9960  33.9960  34.5337  34.5337  35.0135  35.0135  35.3689  35.3689
    35.6493  35.6493  36.6658  36.6658  37.5453  37.5453  38.8874  38.8874
    39.1314  39.1314  39.6257  39.6257  40.2539  40.2539  40.9490  40.9490
    41.6161  41.6161  42.1615  42.1615  43.1068  43.1068  44.6466  44.6466
    45.0355  45.0355  45.3081  45.3081  45.5510  45.5510  46.4713  46.4713
    46.7334  46.7334  47.4355  47.4355  47.8853  47.8853  48.9467  48.9467
    49.6071  49.6071  49.9610  49.9610  50.2131  50.2131  50.6946  50.6946
    51.4383  51.4383  51.9602  51.9602  52.6109  52.6109  52.8253  52.8253
    53.1565  53.1565  53.4841  53.4841  54.2817  54.2817  54.7953  54.7953

     occupation numbers 
     1.0000   1.0000   1.0000   1.0000   1.0000   1.0000   1.0000   1.0000
     1.0000   1.0000   1.0000   1.0000   1.0000   1.0000   1.0000   1.0000
     1.0000   1.0000   1.0000   1.0000   1.0000   1.0000   1.0000   1.0000
     1.0000   1.0000   1.0000   1.0000   1.0000   1.0000   1.0000   1.0000
     1.0000   1.0000   1.0000   1.0000   1.0000   1.0000   1.0161   1.0161
    -0.0468  -0.0468  -0.0008  -0.0008   0.0000   0.0000   0.0000   0.0000
     0.0000   0.0000   0.0000   0.0000   0.0000   0.0000   0.0000   0.0000
     0.0000   0.0000   0.0000   0.0000   0.0000   0.0000   0.0000   0.0000
     0.0000   0.0000   0.0000   0.0000   0.0000   0.0000   0.0000   0.0000
     0.0000   0.0000   0.0000   0.0000   0.0000   0.0000   0.0000   0.0000
     0.0000   0.0000   0.0000   0.0000   0.0000   0.0000   0.0000   0.0000
     0.0000   0.0000   0.0000   0.0000   0.0000   0.0000   0.0000   0.0000
     0.0000   0.0000   0.0000   0.0000   0.0000   0.0000   0.0000   0.0000
     0.0000   0.0000   0.0000   0.0000   0.0000   0.0000   0.0000   0.0000
     0.0000   0.0000   0.0000   0.0000   0.0000   0.0000   0.0000   0.0000
     0.0000   0.0000   0.0000   0.0000   0.0000   0.0000   0.0000   0.0000
     0.0000   0.0000   0.0000   0.0000   0.0000   0.0000   0.0000   0.0000
     0.0000   0.0000   0.0000   0.0000   0.0000   0.0000   0.0000   0.0000
     0.0000   0.0000   0.0000   0.0000   0.0000   0.0000   0.0000   0.0000
     0.0000   0.0000   0.0000   0.0000   0.0000   0.0000   0.0000   0.0000

          k = 0.1250 0.1250 0.0000 (  4023 PWs)   bands (ev):

   -11.9873 -11.9873 -11.9847 -11.9847 -11.9833 -11.9833 -11.9611 -11.9611
    -9.0303  -9.0303  -9.0271  -9.0271  -9.0154  -9.0154  -8.9674  -8.9674
    -8.9319  -8.9319  -8.9314  -8.9314  -0.5148  -0.5148   1.0960   1.0960
     6.6422   6.6422   8.5232   8.5232   8.8140   8.8140   9.2528   9.2528
     9.5279   9.5279   9.7156   9.7156  11.9276  11.9276  12.7789  12.7789
    13.8524  13.8524  14.3387  14.3387  15.5360  15.5360  18.8395  18.8395
    20.5619  20.5619  21.0777  21.0777  21.8805  21.8805  22.0493  22.0493
    22.5388  22.5388  22.8415  22.8415  22.8812  22.8812  22.9664  22.9664
    24.5503  24.5503  26.7035  26.7035  27.7508  27.7508  28.2141  28.2141
    28.2646  28.2646  29.1041  29.1041  29.5593  29.5593  30.1869  30.1869
    31.5095  31.5095  32.4483  32.4483  32.6046  32.6046  33.6186  33.6186
    34.5393  34.5393  35.0999  35.0999  35.2977  35.2977  35.8269  35.8269
    35.9021  35.9021  36.1135  36.1135  36.6900  36.6900  36.9935  36.9935
    37.2488  37.2488  39.0158  39.0158  39.9167  39.9167  40.1674  40.1674
    40.5580  40.5580  41.3595  41.3595  42.1412  42.1412  43.4588  43.4588
    43.8025  43.8025  44.2947  44.2947  45.5074  45.5074  46.4960  46.4960
    48.0625  48.0625  48.2435  48.2435  48.9978  48.9978  49.5009  49.5009
    49.8614  49.8614  50.8313  50.8313  51.4298  51.4298  51.9950  51.9950
    52.0800  52.0800  52.6539  52.6539  52.8096  52.8096  52.9776  52.9776
    53.7852  53.7852  54.3190  54.3190  55.0650  55.0650  55.1896  55.1896

     occupation numbers 
     1.0000   1.0000   1.0000   1.0000   1.0000   1.0000   1.0000   1.0000
     1.0000   1.0000   1.0000   1.0000   1.0000   1.0000   1.0000   1.0000
     1.0000   1.0000   1.0000   1.0000   1.0000   1.0000   1.0000   1.0000
     1.0000   1.0000   1.0000   1.0000   1.0000   1.0000   1.0000   1.0000
     1.0000   1.0000   1.0000   1.0000   1.0000   1.0000   0.5047   0.5047
    -0.0047  -0.0047   0.0000   0.0000   0.0000   0.0000   0.0000   0.0000
     0.0000   0.0000   0.0000   0.0000   0.0000   0.0000   0.0000   0.0000
     0.0000   0.0000   0.0000   0.0000   0.0000   0.0000   0.0000   0.0000
     0.0000   0.0000   0.0000   0.0000   0.0000   0.0000   0.0000   0.0000
     0.0000   0.0000   0.0000   0.0000   0.0000   0.0000   0.0000   0.0000
     0.0000   0.0000   0.0000   0.0000   0.0000   0.0000   0.0000   0.0000
     0.0000   0.0000   0.0000   0.0000   0.0000   0.0000   0.0000   0.0000
     0.0000   0.0000   0.0000   0.0000   0.0000   0.0000   0.0000   0.0000
     0.0000   0.0000   0.0000   0.0000   0.0000   0.0000   0.0000   0.0000
     0.0000   0.0000   0.0000   0.0000   0.0000   0.0000   0.0000   0.0000
     0.0000   0.0000   0.0000   0.0000   0.0000   0.0000   0.0000   0.0000
     0.0000   0.0000   0.0000   0.0000   0.0000   0.0000   0.0000   0.0000
     0.0000   0.0000   0.0000   0.0000   0.0000   0.0000   0.0000   0.0000
     0.0000   0.0000   0.0000   0.0000   0.0000   0.0000   0.0000   0.0000
     0.0000   0.0000   0.0000   0.0000   0.0000   0.0000   0.0000   0.0000

          k =-0.2500 0.2500 0.1278 (  4032 PWs)   bands (ev):

   -11.9779 -11.9779 -11.9678 -11.9678 -11.9642 -11.9642 -11.9617 -11.9617
    -8.9986  -8.9986  -8.9850  -8.9850  -8.9726  -8.9726  -8.9680  -8.9680
    -8.9582  -8.9582  -8.9470  -8.9470   0.6587   0.6587   1.5921   1.5921
     7.8389   7.8389   8.3192   8.3192   8.6724   8.6724   8.8497   8.8497
     9.3463   9.3463   9.5837   9.5837  11.1768  11.1768  11.4188  11.4188
    11.9979  11.9979  13.3901  13.3901  14.4610  14.4610  17.5700  17.5700
    18.7901  18.7901  19.6998  19.6998  20.6559  20.6559  21.6627  21.6627
    23.2389  23.2389  23.5407  23.5407  24.9866  24.9866  25.4754  25.4754
    26.1454  26.1454  26.4876  26.4876  27.2422  27.2422  28.6728  28.6728
    29.3539  29.3539  29.9388  29.9388  30.5036  30.5036  30.9610  30.9610
    31.2315  31.2315  32.4198  32.4198  32.8459  32.8459  33.1664  33.1664
    34.3777  34.3777  34.7618  34.7618  35.1503  35.1503  35.7842  35.7842
    36.6948  36.6948  37.5097  37.5097  38.7280  38.7280  39.2072  39.2072
    40.3068  40.3068  40.6635  40.6635  41.1442  41.1442  42.3500  42.3500
    43.0336  43.0336  43.1639  43.1639  43.5923  43.5923  43.7959  43.7959
    44.7010  44.7010  45.3473  45.3473  45.6990  45.6990  46.0867  46.0867
    46.4206  46.4206  47.0578  47.0578  47.5164  47.5164  47.8932  47.8932
    48.5112  48.5112  49.0124  49.0124  49.1154  49.1154  49.2602  49.2602
    49.6580  49.6580  51.3560  51.3560  51.5760  51.5760  51.8605  51.8605
    52.6079  52.6079  52.9696  52.9696  53.4988  53.4988  54.3035  54.3035

     occupation numbers 
     1.0000   1.0000   1.0000   1.0000   1.0000   1.0000   1.0000   1.0000
     1.0000   1.0000   1.0000   1.0000   1.0000   1.0000   1.0000   1.0000
     1.0000   1.0000   1.0000   1.0000   1.0000   1.0000   1.0000   1.0000
     1.0000   1.0000   1.0000   1.0000   1.0000   1.0000   1.0000   1.0000
     1.0000   1.0000   1.0000   1.0000   1.0000   1.0000   1.0112   1.0112
     0.6608   0.6608   0.0000   0.0000   0.0000   0.0000   0.0000   0.0000
     0.0000   0.0000   0.0000   0.0000   0.0000   0.0000   0.0000   0.0000
     0.0000   0.0000   0.0000   0.0000   0.0000   0.0000   0.0000   0.0000
     0.0000   0.0000   0.0000   0.0000   0.0000   0.0000   0.0000   0.0000
     0.0000   0.0000   0.0000   0.0000   0.0000   0.0000   0.0000   0.0000
     0.0000   0.0000   0.0000   0.0000   0.0000   0.0000   0.0000   0.0000
     0.0000   0.0000   0.0000   0.0000   0.0000   0.0000   0.0000   0.0000
     0.0000   0.0000   0.0000   0.0000   0.0000   0.0000   0.0000   0.0000
     0.0000   0.0000   0.0000   0.0000   0.0000   0.0000   0.0000   0.0000
     0.0000   0.0000   0.0000   0.0000   0.0000   0.0000   0.0000   0.0000
     0.0000   0.0000   0.0000   0.0000   0.0000   0.0000   0.0000   0.0000
     0.0000   0.0000   0.0000   0.0000   0.0000   0.0000   0.0000   0.0000
     0.0000   0.0000   0.0000   0.0000   0.0000   0.0000   0.0000   0.0000
     0.0000   0.0000   0.0000   0.0000   0.0000   0.0000   0.0000   0.0000
     0.0000   0.0000   0.0000   0.0000   0.0000   0.0000   0.0000   0.0000

          k =-0.3750 0.2500 0.1598 (  4029 PWs)   bands (ev):

   -11.9772 -11.9772 -11.9670 -11.9670 -11.9550 -11.9550 -11.9526 -11.9526
    -9.0041  -9.0041  -8.9954  -8.9954  -8.9716  -8.9716  -8.9610  -8.9610
    -8.9351  -8.9351  -8.9212  -8.9212   1.3739   1.3739   2.0352   2.0352
     7.5435   7.5435   7.8063   7.8063   8.4365   8.4365   8.9745   8.9745
     9.3648   9.3648   9.7393   9.7393  10.5620  10.5620  11.0918  11.0918
    12.5112  12.5112  13.3922  13.3922  14.3818  14.3818  16.2459  16.2459
    17.9620  17.9620  18.4898  18.4898  19.2323  19.2323  21.0397  21.0397
    23.0571  23.0571  23.8290  23.8290  25.3097  25.3097  25.8012  25.8012
    26.7713  26.7713  27.9161  27.9161  28.1838  28.1838  29.1456  29.1456
    29.7663  29.7663  30.2766  30.2766  30.5387  30.5387  31.2850  31.2850
    31.5623  31.5623  32.4018  32.4018  34.2662  34.2662  34.4849  34.4849
    35.0894  35.0894  35.2495  35.2495  36.1646  36.1646  36.9870  36.9870
    37.4791  37.4791  38.7199  38.7199  38.9578  38.9578  39.7594  39.7594
    40.0396  40.0396  40.6003  40.6003  40.9436  40.9436  41.9123  41.9123
    42.3929  42.3929  42.8108  42.8108  43.6763  43.6763  44.0745  44.0745
    44.5449  44.5449  44.8583  44.8583  45.1910  45.1910  45.3146  45.3146
    45.8001  45.8001  46.2918  46.2918  46.5525  46.5525  47.2882  47.2882
    47.7944  47.7944  48.5874  48.5874  48.7895  48.7895  49.2202  49.2202
    50.1537  50.1537  51.1784  51.1784  51.4725  51.4725  52.0409  52.0409
    52.1054  52.1054  52.9252  52.9252  53.1724  53.1724  53.9029  53.9029

     occupation numbers 
     1.0000   1.0000   1.0000   1.0000   1.0000   1.0000   1.0000   1.0000
     1.0000   1.0000   1.0000   1.0000   1.0000   1.0000   1.0000   1.0000
     1.0000   1.0000   1.0000   1.0000   1.0000   1.0000   1.0000   1.0000
     1.0000   1.0000   1.0000   1.0000   1.0000   1.0000   1.0000   1.0000
     1.0000   1.0000   1.0000   1.0000   1.0000   1.0000   1.0017   1.0017
     0.0634   0.0634   0.0000   0.0000   0.0000   0.0000   0.0000   0.0000
     0.0000   0.0000   0.0000   0.0000   0.0000   0.0000   0.0000   0.0000
     0.0000   0.0000   0.0000   0.0000   0.0000   0.0000   0.0000   0.0000
     0.0000   0.0000   0.0000   0.0000   0.0000   0.0000   0.0000   0.0000
     0.0000   0.0000   0.0000   0.0000   0.0000   0.0000   0.0000   0.0000
     0.0000   0.0000   0.0000   0.0000   0.0000   0.0000   0.0000   0.0000
     0.0000   0.0000   0.0000   0.0000   0.0000   0.0000   0.0000   0.0000
     0.0000   0.0000   0.0000   0.0000   0.0000   0.0000   0.0000   0.0000
     0.0000   0.0000   0.0000   0.0000   0.0000   0.0000   0.0000   0.0000
     0.0000   0.0000   0.0000   0.0000   0.0000   0.0000   0.0000   0.0000
     0.0000   0.0000   0.0000   0.0000   0.0000   0.0000   0.0000   0.0000
     0.0000   0.0000   0.0000   0.0000   0.0000   0.0000   0.0000   0.0000
     0.0000   0.0000   0.0000   0.0000   0.0000   0.0000   0.0000   0.0000
     0.0000   0.0000   0.0000   0.0000   0.0000   0.0000   0.0000   0.0000
     0.0000   0.0000   0.0000   0.0000   0.0000   0.0000   0.0000   0.0000

          k = 0.5000 0.2500-0.0639 (  4031 PWs)   bands (ev):

   -11.9783 -11.9783 -11.9676 -11.9676 -11.9498 -11.9498 -11.9489 -11.9489
    -9.0106  -9.0106  -9.0019  -9.0019  -8.9745  -8.9745  -8.9594  -8.9594
    -8.9188  -8.9188  -8.9055  -8.9055   1.6919   1.6919   2.3714   2.3714
     7.0398   7.0398   7.4753   7.4753   8.3719   8.3719   8.7830   8.7830
     9.3128   9.3128  10.2600  10.2600  10.5179  10.5179  11.0062  11.0062
    12.5312  12.5312  13.5260  13.5260  14.5384  14.5384  15.7100  15.7100
    17.6928  17.6928  18.1193  18.1193  19.5473  19.5473  20.4276  20.4276
    22.3112  22.3112  22.9576  22.9576  24.4862  24.4862  26.3200  26.3200
    27.5188  27.5188  28.0374  28.0374  28.7219  28.7219  29.4918  29.4918
    29.8562  29.8562  30.6873  30.6873  31.3862  31.3862  32.2364  32.2364
    32.5977  32.5977  33.4210  33.4210  34.0057  34.0057  34.6300  34.6300
    35.0109  35.0109  36.0481  36.0481  36.8643  36.8643  37.1092  37.1092
    37.5903  37.5903  38.3665  38.3665  38.9624  38.9624  39.3660  39.3660
    39.7722  39.7722  40.4376  40.4376  40.6864  40.6864  41.2829  41.2829
    41.7056  41.7056  42.1599  42.1599  42.8983  42.8983  43.7580  43.7580
    44.6518  44.6518  44.9557  44.9557  45.4828  45.4828  45.7267  45.7267
    46.1259  46.1259  46.5665  46.5665  46.9838  46.9838  47.4927  47.4927
    47.7836  47.7836  48.1588  48.1588  48.6771  48.6771  49.1606  49.1606
    50.1189  50.1189  50.7751  50.7751  50.9724  50.9724  51.7370  51.7370
    52.2480  52.2480  52.6427  52.6427  53.0806  53.0806  53.4800  53.4800

     occupation numbers 
     1.0000   1.0000   1.0000   1.0000   1.0000   1.0000   1.0000   1.0000
     1.0000   1.0000   1.0000   1.0000   1.0000   1.0000   1.0000   1.0000
     1.0000   1.0000   1.0000   1.0000   1.0000   1.0000   1.0000   1.0000
     1.0000   1.0000   1.0000   1.0000   1.0000   1.0000   1.0000   1.0000
     1.0000   1.0000   1.0000   1.0000   1.0000   1.0000   1.0000   1.0000
     0.0969   0.0969   0.0000   0.0000   0.0000   0.0000   0.0000   0.0000
     0.0000   0.0000   0.0000   0.0000   0.0000   0.0000   0.0000   0.0000
     0.0000   0.0000   0.0000   0.0000   0.0000   0.0000   0.0000   0.0000
     0.0000   0.0000   0.0000   0.0000   0.0000   0.0000   0.0000   0.0000
     0.0000   0.0000   0.0000   0.0000   0.0000   0.0000   0.0000   0.0000
     0.0000   0.0000   0.0000   0.0000   0.0000   0.0000   0.0000   0.0000
     0.0000   0.0000   0.0000   0.0000   0.0000   0.0000   0.0000   0.0000
     0.0000   0.0000   0.0000   0.0000   0.0000   0.0000   0.0000   0.0000
     0.0000   0.0000   0.0000   0.0000   0.0000   0.0000   0.0000   0.0000
     0.0000   0.0000   0.0000   0.0000   0.0000   0.0000   0.0000   0.0000
     0.0000   0.0000   0.0000   0.0000   0.0000   0.0000   0.0000   0.0000
     0.0000   0.0000   0.0000   0.0000   0.0000   0.0000   0.0000   0.0000
     0.0000   0.0000   0.0000   0.0000   0.0000   0.0000   0.0000   0.0000
     0.0000   0.0000   0.0000   0.0000   0.0000   0.0000   0.0000   0.0000
     0.0000   0.0000   0.0000   0.0000   0.0000   0.0000   0.0000   0.0000

          k = 0.3750 0.2500-0.0320 (  4036 PWs)   bands (ev):

   -11.9790 -11.9790 -11.9659 -11.9659 -11.9542 -11.9542 -11.9529 -11.9529
    -9.0038  -9.0038  -8.9940  -8.9940  -8.9750  -8.9750  -8.9608  -8.9608
    -8.9348  -8.9348  -8.9204  -8.9204   1.2122   1.2122   2.2813   2.2813
     7.3826   7.3826   7.7925   7.7925   8.4267   8.4267   8.9385   8.9385
     9.3856   9.3856   9.8364   9.8364  10.6616  10.6616  10.8656  10.8656
    12.3939  12.3939  12.9982  12.9982  14.9662  14.9662  16.3953  16.3953
    18.5231  18.5231  19.4820  19.4820  20.1004  20.1004  20.5729  20.5729
    21.4198  21.4198  22.1571  22.1571  23.1158  23.1158  26.5911  26.5911
    27.0210  27.0210  29.1191  29.1191  29.5970  29.5970  29.8042  29.8042
    30.0825  30.0825  30.7723  30.7723  30.9888  30.9888  31.8268  31.8268
    32.0355  32.0355  32.9191  32.9191  33.5008  33.5008  33.9580  33.9580
    34.5123  34.5123  35.0431  35.0431  35.8568  35.8568  36.1414  36.1414
    37.1118  37.1118  37.4930  37.4930  37.9440  37.9440  39.5175  39.5175
    40.3013  40.3013  40.5695  40.5695  41.1703  41.1703  41.9666  41.9666
    42.2577  42.2577  42.9025  42.9025  43.1862  43.1862  44.0820  44.0820
    45.0331  45.0331  45.4944  45.4944  45.6471  45.6471  46.0786  46.0786
    46.3863  46.3863  46.6391  46.6391  47.0924  47.0924  47.5625  47.5625
    48.1466  48.1466  48.5639  48.5639  49.4433  49.4433  49.7086  49.7086
    50.1461  50.1461  50.5933  50.5933  50.9003  50.9003  51.7544  51.7544
    51.8975  51.8975  52.1100  52.1100  52.6616  52.6616  53.4720  53.4720

     occupation numbers 
     1.0000   1.0000   1.0000   1.0000   1.0000   1.0000   1.0000   1.0000
     1.0000   1.0000   1.0000   1.0000   1.0000   1.0000   1.0000   1.0000
     1.0000   1.0000   1.0000   1.0000   1.0000   1.0000   1.0000   1.0000
     1.0000   1.0000   1.0000   1.0000   1.0000   1.0000   1.0000   1.0000
     1.0000   1.0000   1.0000   1.0000   1.0000   1.0000   1.0008   1.0008
     0.3061   0.3061   0.0006   0.0006   0.0000   0.0000   0.0000   0.0000
     0.0000   0.0000   0.0000   0.0000   0.0000   0.0000   0.0000   0.0000
     0.0000   0.0000   0.0000   0.0000   0.0000   0.0000   0.0000   0.0000
     0.0000   0.0000   0.0000   0.0000   0.0000   0.0000   0.0000   0.0000
     0.0000   0.0000   0.0000   0.0000   0.0000   0.0000   0.0000   0.0000
     0.0000   0.0000   0.0000   0.0000   0.0000   0.0000   0.0000   0.0000
     0.0000   0.0000   0.0000   0.0000   0.0000   0.0000   0.0000   0.0000
     0.0000   0.0000   0.0000   0.0000   0.0000   0.0000   0.0000   0.0000
     0.0000   0.0000   0.0000   0.0000   0.0000   0.0000   0.0000   0.0000
     0.0000   0.0000   0.0000   0.0000   0.0000   0.0000   0.0000   0.0000
     0.0000   0.0000   0.0000   0.0000   0.0000   0.0000   0.0000   0.0000
     0.0000   0.0000   0.0000   0.0000   0.0000   0.0000   0.0000   0.0000
     0.0000   0.0000   0.0000   0.0000   0.0000   0.0000   0.0000   0.0000
     0.0000   0.0000   0.0000   0.0000   0.0000   0.0000   0.0000   0.0000
     0.0000   0.0000   0.0000   0.0000   0.0000   0.0000   0.0000   0.0000

          k = 0.2500 0.2500 0.0000 (  4011 PWs)   bands (ev):

   -11.9800 -11.9800 -11.9664 -11.9664 -11.9641 -11.9641 -11.9603 -11.9603
    -9.0000  -9.0000  -8.9810  -8.9810  -8.9717  -8.9717  -8.9685  -8.9685
    -8.9623  -8.9623  -8.9452  -8.9452   0.5142   0.5142   1.8393   1.8393
     7.4658   7.4658   8.2793   8.2793   8.7329   8.7329   8.8827   8.8827
[...]

     occupation numbers 
     1.0000   1.0000   1.0000   1.0000   1.0000   1.0000   1.0000   1.0000
     1.0000   1.0000   1.0000   1.0000   1.0000   1.0000   1.0000   1.0000
     1.0000   1.0000   1.0000   1.0000   1.0000   1.0000   1.0000   1.0000
     1.0000   1.0000   1.0000   1.0000   1.0000   1.0000   1.0000   1.0000
     1.0000   1.0000   1.0000   1.0000   1.0000   1.0000   1.0000   1.0000
    -0.0357  -0.0357   0.0000   0.0000   0.0000   0.0000   0.0000   0.0000
     0.0000   0.0000   0.0000   0.0000   0.0000   0.0000   0.0000   0.0000
     0.0000   0.0000   0.0000   0.0000   0.0000   0.0000   0.0000   0.0000
     0.0000   0.0000   0.0000   0.0000   0.0000   0.0000   0.0000   0.0000
     0.0000   0.0000   0.0000   0.0000   0.0000   0.0000   0.0000   0.0000
     0.0000   0.0000   0.0000   0.0000   0.0000   0.0000   0.0000   0.0000
     0.0000   0.0000   0.0000   0.0000   0.0000   0.0000   0.0000   0.0000
     0.0000   0.0000   0.0000   0.0000   0.0000   0.0000   0.0000   0.0000
     0.0000   0.0000   0.0000   0.0000   0.0000   0.0000   0.0000   0.0000
     0.0000   0.0000   0.0000   0.0000   0.0000   0.0000   0.0000   0.0000
     0.0000   0.0000   0.0000   0.0000   0.0000   0.0000   0.0000   0.0000
     0.0000   0.0000   0.0000   0.0000   0.0000   0.0000   0.0000   0.0000
     0.0000   0.0000   0.0000   0.0000   0.0000   0.0000   0.0000   0.0000
     0.0000   0.0000   0.0000   0.0000   0.0000   0.0000   0.0000   0.0000
     0.0000   0.0000   0.0000   0.0000   0.0000   0.0000   0.0000   0.0000

          k = 0.0000 0.0000 0.1917 (  4019 PWs)   bands (ev):

   -11.9952 -11.9952 -11.9929 -11.9929 -11.9807 -11.9807 -11.9686 -11.9686
    -9.0511  -9.0511  -9.0494  -9.0494  -9.0165  -9.0165  -8.9808  -8.9808
    -8.9300  -8.9300  -8.9026  -8.9026  -0.5062  -0.5062   0.1593   0.1593
     7.4809   7.4809   8.4381   8.4381   8.9427   8.9427   9.3326   9.3326
     9.6198   9.6198   9.7995   9.7995  10.9408  10.9408  13.3694  13.3694
    14.8353  14.8353  15.3664  15.3664  17.7180  17.7180  18.3710  18.3710
    19.1723  19.1723  19.7811  19.7811  21.1111  21.1111  21.2890  21.2890
    22.1560  22.1560  22.5709  22.5709  23.6437  23.6437  23.6570  23.6570
    26.9794  26.9794  27.9344  27.9344  28.1575  28.1575  28.2542  28.2542
    28.3013  28.3013  29.4840  29.4840  29.7635  29.7635  29.8196  29.8196
    30.1760  30.1760  32.0031  32.0031  32.7420  32.7420  33.1106  33.1106
    33.3614  33.3614  33.4352  33.4352  33.7324  33.7324  33.9581  33.9581
    34.0341  34.0341  36.8937  36.8937  37.0689  37.0689  37.2533  37.2533
    37.4240  37.4240  38.0382  38.0382  39.4752  39.4752  39.8434  39.8434
    41.3672  41.3672  41.6051  41.6051  41.9804  41.9804  42.1736  42.1736
    43.4138  43.4138  46.1186  46.1186  46.2480  46.2480  47.3427  47.3427
    47.4337  47.4337  47.7919  47.7919  49.1178  49.1178  49.5241  49.5241
    49.8217  49.8217  50.0810  50.0810  51.5432  51.5432  51.8013  51.8013
    51.9589  51.9589  52.3295  52.3295  53.1485  53.1485  53.5572  53.5572
    55.1832  55.1832  55.6375  55.6375  56.0414  56.0414  56.0796  56.0796

     occupation numbers 
     1.0000   1.0000   1.0000   1.0000   1.0000   1.0000   1.0000   1.0000
     1.0000   1.0000   1.0000   1.0000   1.0000   1.0000   1.0000   1.0000
     1.0000   1.0000   1.0000   1.0000   1.0000   1.0000   1.0000   1.0000
     1.0000   1.0000   1.0000   1.0000   1.0000   1.0000   1.0000   1.0000
     1.0000   1.0000   1.0000   1.0000   1.0000   1.0000  -0.1022  -0.1022
    -0.0000  -0.0000   0.0000   0.0000   0.0000   0.0000   0.0000   0.0000
     0.0000   0.0000   0.0000   0.0000   0.0000   0.0000   0.0000   0.0000
     0.0000   0.0000   0.0000   0.0000   0.0000   0.0000   0.0000   0.0000
     0.0000   0.0000   0.0000   0.0000   0.0000   0.0000   0.0000   0.0000
     0.0000   0.0000   0.0000   0.0000   0.0000   0.0000   0.0000   0.0000
     0.0000   0.0000   0.0000   0.0000   0.0000   0.0000   0.0000   0.0000
     0.0000   0.0000   0.0000   0.0000   0.0000   0.0000   0.0000   0.0000
     0.0000   0.0000   0.0000   0.0000   0.0000   0.0000   0.0000   0.0000
     0.0000   0.0000   0.0000   0.0000   0.0000   0.0000   0.0000   0.0000
     0.0000   0.0000   0.0000   0.0000   0.0000   0.0000   0.0000   0.0000
     0.0000   0.0000   0.0000   0.0000   0.0000   0.0000   0.0000   0.0000
     0.0000   0.0000   0.0000   0.0000   0.0000   0.0000   0.0000   0.0000
     0.0000   0.0000   0.0000   0.0000   0.0000   0.0000   0.0000   0.0000
     0.0000   0.0000   0.0000   0.0000   0.0000   0.0000   0.0000   0.0000
     0.0000   0.0000   0.0000   0.0000   0.0000   0.0000   0.0000   0.0000

          k = 0.8750 0.0000-0.0320 (  4005 PWs)   bands (ev):

   -11.9916 -11.9916 -11.9888 -11.9888 -11.9769 -11.9769 -11.9692 -11.9692
    -9.0423  -9.0423  -9.0396  -9.0396  -9.0101  -9.0101  -8.9778  -8.9778
    -8.9373  -8.9373  -8.9085  -8.9085  -0.2112  -0.2112   0.1713   0.1713
     7.8597   7.8597   8.4685   8.4685   8.7273   8.7273   9.1999   9.1999
     9.6678   9.6678   9.9274   9.9274  10.6325  10.6325  12.6724  12.6724
    14.3308  14.3308  14.6140  14.6140  16.9580  16.9580  18.5463  18.5463
    19.5168  19.5168  20.4240  20.4240  21.1107  21.1107  22.2871  22.2871
    22.4167  22.4167  22.9150  22.9150  24.3625  24.3625  25.3917  25.3917
    26.1237  26.1237  27.0639  27.0639  27.5630  27.5630  27.9168  27.9168
    28.0291  28.0291  28.2397  28.2397  28.4893  28.4893  29.0765  29.0765
    29.4269  29.4269  32.6806  32.6806  33.3848  33.3848  33.5361  33.5361
    33.8842  33.8842  34.2298  34.2298  34.5715  34.5715  34.6653  34.6653
    35.2668  35.2668  35.6846  35.6846  35.9430  35.9430  36.8452  36.8452
    38.4966  38.4966  39.3961  39.3961  40.0457  40.0457  40.6063  40.6063
    41.5093  41.5093  41.9888  41.9888  43.0815  43.0815  43.6324  43.6324
    44.1188  44.1188  45.2581  45.2581  45.7778  45.7778  46.9006  46.9006
    47.9225  47.9225  48.0999  48.0999  48.4469  48.4469  48.5712  48.5712
    48.7753  48.7753  49.6967  49.6967  50.1423  50.1423  51.0541  51.0541
    52.0670  52.0670  52.3602  52.3602  52.8155  52.8155  53.8901  53.8901
    54.3433  54.3433  54.5971  54.5971  56.1673  56.1673  56.2547  56.2547

     occupation numbers 
     1.0000   1.0000   1.0000   1.0000   1.0000   1.0000   1.0000   1.0000
     1.0000   1.0000   1.0000   1.0000   1.0000   1.0000   1.0000   1.0000
     1.0000   1.0000   1.0000   1.0000   1.0000   1.0000   1.0000   1.0000
     1.0000   1.0000   1.0000   1.0000   1.0000   1.0000   1.0000   1.0000
     1.0000   1.0000   1.0000   1.0000   1.0000   1.0000   0.3362   0.3362
    -0.0359  -0.0359   0.0000   0.0000   0.0000   0.0000   0.0000   0.0000
     0.0000   0.0000   0.0000   0.0000   0.0000   0.0000   0.0000   0.0000
     0.0000   0.0000   0.0000   0.0000   0.0000   0.0000   0.0000   0.0000
     0.0000   0.0000   0.0000   0.0000   0.0000   0.0000   0.0000   0.0000
     0.0000   0.0000   0.0000   0.0000   0.0000   0.0000   0.0000   0.0000
     0.0000   0.0000   0.0000   0.0000   0.0000   0.0000   0.0000   0.0000
     0.0000   0.0000   0.0000   0.0000   0.0000   0.0000   0.0000   0.0000
     0.0000   0.0000   0.0000   0.0000   0.0000   0.0000   0.0000   0.0000
     0.0000   0.0000   0.0000   0.0000   0.0000   0.0000   0.0000   0.0000
     0.0000   0.0000   0.0000   0.0000   0.0000   0.0000   0.0000   0.0000
     0.0000   0.0000   0.0000   0.0000   0.0000   0.0000   0.0000   0.0000
     0.0000   0.0000   0.0000   0.0000   0.0000   0.0000   0.0000   0.0000
     0.0000   0.0000   0.0000   0.0000   0.0000   0.0000   0.0000   0.0000
     0.0000   0.0000   0.0000   0.0000   0.0000   0.0000   0.0000   0.0000
     0.0000   0.0000   0.0000   0.0000   0.0000   0.0000   0.0000   0.0000

          k = 0.7500 0.0000 0.0000 (  4014 PWs)   bands (ev):

   -11.9873 -11.9873 -11.9860 -11.9860 -11.9670 -11.9670 -11.9628 -11.9628
    -9.0309  -9.0309  -9.0249  -9.0249  -8.9855  -8.9855  -8.9755  -8.9755
    -8.9398  -8.9398  -8.9232  -8.9232   0.3550   0.3550   0.5525   0.5525
     7.9620   7.9620   8.2316   8.2316   8.5332   8.5332   9.0684   9.0684
     9.4663   9.4663   9.6262   9.6262  11.1706  11.1706  11.6198  11.6198
    12.4400  12.4400  15.1966  15.1966  16.3062  16.3062  17.1431  17.1431
    19.7382  19.7382  21.1325  21.1325  22.1699  22.1699  22.8262  22.8262
    23.7549  23.7549  24.5417  24.5417  24.9262  24.9262  25.3640  25.3640
    25.6638  25.6638  26.0055  26.0055  26.3558  26.3558  26.4353  26.4353
    27.0958  27.0958  27.2962  27.2962  29.1195  29.1195  29.5463  29.5463
    29.9431  29.9431  31.5159  31.5159  33.1025  33.1025  33.1937  33.1937
    33.3635  33.3635  33.4029  33.4029  35.6278  35.6278  36.6331  36.6331
    37.2273  37.2273  37.5665  37.5665  37.8019  37.8019  38.0217  38.0217
    39.6536  39.6536  40.0302  40.0302  40.9801  40.9801  41.6114  41.6114
    41.9751  41.9751  43.6679  43.6679  43.8690  43.8690  44.2742  44.2742
    44.3682  44.3682  45.0835  45.0835  45.4106  45.4106  45.7535  45.7535
    46.2084  46.2084  47.3620  47.3620  47.8640  47.8640  48.3275  48.3275
    48.5971  48.5971  48.7156  48.7156  48.8080  48.8080  50.6472  50.6472
    51.2074  51.2074  51.2405  51.2405  52.1514  52.1514  53.4820  53.4820
    53.5730  53.5730  54.7946  54.7946  55.2637  55.2637  56.2987  56.2987

     occupation numbers 
     1.0000   1.0000   1.0000   1.0000   1.0000   1.0000   1.0000   1.0000
     1.0000   1.0000   1.0000   1.0000   1.0000   1.0000   1.0000   1.0000
     1.0000   1.0000   1.0000   1.0000   1.0000   1.0000   1.0000   1.0000
     1.0000   1.0000   1.0000   1.0000   1.0000   1.0000   1.0000   1.0000
     1.0000   1.0000   1.0000   1.0000   1.0000   1.0000   1.0449   1.0449
     0.0419   0.0419   0.0000   0.0000   0.0000   0.0000   0.0000   0.0000
     0.0000   0.0000   0.0000   0.0000   0.0000   0.0000   0.0000   0.0000
     0.0000   0.0000   0.0000   0.0000   0.0000   0.0000   0.0000   0.0000
     0.0000   0.0000   0.0000   0.0000   0.0000   0.0000   0.0000   0.0000
     0.0000   0.0000   0.0000   0.0000   0.0000   0.0000   0.0000   0.0000
     0.0000   0.0000   0.0000   0.0000   0.0000   0.0000   0.0000   0.0000
     0.0000   0.0000   0.0000   0.0000   0.0000   0.0000   0.0000   0.0000
     0.0000   0.0000   0.0000   0.0000   0.0000   0.0000   0.0000   0.0000
     0.0000   0.0000   0.0000   0.0000   0.0000   0.0000   0.0000   0.0000
     0.0000   0.0000   0.0000   0.0000   0.0000   0.0000   0.0000   0.0000
     0.0000   0.0000   0.0000   0.0000   0.0000   0.0000   0.0000   0.0000
     0.0000   0.0000   0.0000   0.0000   0.0000   0.0000   0.0000   0.0000
     0.0000   0.0000   0.0000   0.0000   0.0000   0.0000   0.0000   0.0000
     0.0000   0.0000   0.0000   0.0000   0.0000   0.0000   0.0000   0.0000
     0.0000   0.0000   0.0000   0.0000   0.0000   0.0000   0.0000   0.0000

          k = 0.8750-0.8750-0.2557 (  3992 PWs)   bands (ev):

   -11.9869 -11.9869 -11.9835 -11.9835 -11.9761 -11.9761 -11.9691 -11.9691
    -9.0316  -9.0316  -9.0270  -9.0270  -9.0074  -9.0074  -8.9741  -8.9741
    -8.9451  -8.9451  -8.9157  -8.9157   0.0327   0.0327   0.2541   0.2541
     8.1105   8.1105   8.5135   8.5135   8.6874   8.6874   8.9681   8.9681
     9.4945   9.4945  10.0529  10.0529  10.7254  10.7254  12.6174  12.6174
    13.4432  13.4432  14.1519  14.1519  15.8151  15.8151  18.5229  18.5229
    19.8341  19.8341  20.6367  20.6367  21.9751  21.9751  22.0420  22.0420
    23.1851  23.1851  24.1616  24.1616  25.0790  25.0790  25.3785  25.3785
    25.6550  25.6550  25.8861  25.8861  26.4870  26.4870  27.4533  27.4533
    27.8865  27.8865  28.0537  28.0537  28.4512  28.4512  29.6522  29.6522
    30.3016  30.3016  31.6809  31.6809  32.6083  32.6083  33.0574  33.0574
    33.9879  33.9879  34.2745  34.2745  34.6225  34.6225  35.1210  35.1210
    36.0405  36.0405  36.6364  36.6364  37.4400  37.4400  38.5064  38.5064
    38.8565  38.8565  39.2581  39.2581  40.3329  40.3329  40.6029  40.6029
    40.8074  40.8074  43.1670  43.1670  43.4027  43.4027  43.5544  43.5544
    44.6814  44.6814  44.9026  44.9026  45.6289  45.6289  47.2637  47.2637
    47.8053  47.8053  47.8627  47.8627  47.9599  47.9599  48.4756  48.4756
    48.8943  48.8943  49.1513  49.1513  49.8336  49.8336  50.5538  50.5538
    51.8395  51.8395  52.1105  52.1105  52.8198  52.8198  53.0296  53.0296
    54.4173  54.4173  54.5326  54.5326  54.5971  54.5971  55.4608  55.4608

     occupation numbers 
     1.0000   1.0000   1.0000   1.0000   1.0000   1.0000   1.0000   1.0000
     1.0000   1.0000   1.0000   1.0000   1.0000   1.0000   1.0000   1.0000
     1.0000   1.0000   1.0000   1.0000   1.0000   1.0000   1.0000   1.0000
     1.0000   1.0000   1.0000   1.0000   1.0000   1.0000   1.0000   1.0000
     1.0000   1.0000   1.0000   1.0000   1.0000   1.0000   0.5276   0.5276
    -0.0300  -0.0300   0.0000   0.0000   0.0000   0.0000   0.0000   0.0000
     0.0000   0.0000   0.0000   0.0000   0.0000   0.0000   0.0000   0.0000
     0.0000   0.0000   0.0000   0.0000   0.0000   0.0000   0.0000   0.0000
     0.0000   0.0000   0.0000   0.0000   0.0000   0.0000   0.0000   0.0000
     0.0000   0.0000   0.0000   0.0000   0.0000   0.0000   0.0000   0.0000
     0.0000   0.0000   0.0000   0.0000   0.0000   0.0000   0.0000   0.0000
     0.0000   0.0000   0.0000   0.0000   0.0000   0.0000   0.0000   0.0000
     0.0000   0.0000   0.0000   0.0000   0.0000   0.0000   0.0000   0.0000
     0.0000   0.0000   0.0000   0.0000   0.0000   0.0000   0.0000   0.0000
     0.0000   0.0000   0.0000   0.0000   0.0000   0.0000   0.0000   0.0000
     0.0000   0.0000   0.0000   0.0000   0.0000   0.0000   0.0000   0.0000
     0.0000   0.0000   0.0000   0.0000   0.0000   0.0000   0.0000   0.0000
     0.0000   0.0000   0.0000   0.0000   0.0000   0.0000   0.0000   0.0000
     0.0000   0.0000   0.0000   0.0000   0.0000   0.0000   0.0000   0.0000
     0.0000   0.0000   0.0000   0.0000   0.0000   0.0000   0.0000   0.0000

          k = 0.0000 0.0000-0.2557 (  4006 PWs)   bands (ev):

   -11.9951 -11.9951 -11.9929 -11.9929 -11.9779 -11.9779 -11.9710 -11.9710
    -9.0511  -9.0511  -9.0495  -9.0495  -9.0148  -9.0148  -8.9820  -8.9820
    -8.9308  -8.9308  -8.9015  -8.9015  -0.3203  -0.3203  -0.0711  -0.0711
     7.8131   7.8131   8.4382   8.4382   8.9725   8.9725   9.3355   9.3355
     9.5157   9.5157   9.7998   9.7998  10.6243  10.6243  13.2474  13.2474
    14.7640  14.7640  15.4691  15.4691  17.9073  17.9073  18.3891  18.3891
    19.5949  19.5949  19.8154  19.8154  20.8487  20.8487  21.0649  21.0649
    21.9161  21.9161  22.3104  22.3104  23.5927  23.5927  25.1250  25.1250
    25.5431  25.5431  27.9975  27.9975  28.4741  28.4741  28.5119  28.5119
    28.5169  28.5169  29.4789  29.4789  29.8907  29.8907  30.0921  30.0921
    30.2511  30.2511  31.9875  31.9875  32.6814  32.6814  32.9026  32.9026
    32.9246  32.9246  33.2497  33.2497  33.5660  33.5660  33.6362  33.6362
    33.6753  33.6753  36.6402  36.6402  37.2174  37.2174  37.7806  37.7806
    38.1560  38.1560  38.2743  38.2743  38.7593  38.7593  39.0287  39.0287
    41.7059  41.7059  41.8229  41.8229  41.9200  41.9200  43.2803  43.2803
    45.1875  45.1875  45.9409  45.9409  45.9878  45.9878  46.1065  46.1065
    46.4607  46.4607  48.4450  48.4450  48.8651  48.8651  49.4184  49.4184
    49.7993  49.7993  50.4501  50.4501  51.5723  51.5723  52.0384  52.0384
    52.0469  52.0469  52.1477  52.1477  52.4078  52.4078  54.6046  54.6046
    54.6244  54.6244  55.2192  55.2192  55.2280  55.2280  56.1021  56.1021

     occupation numbers 
     1.0000   1.0000   1.0000   1.0000   1.0000   1.0000   1.0000   1.0000
     1.0000   1.0000   1.0000   1.0000   1.0000   1.0000   1.0000   1.0000
     1.0000   1.0000   1.0000   1.0000   1.0000   1.0000   1.0000   1.0000
     1.0000   1.0000   1.0000   1.0000   1.0000   1.0000   1.0000   1.0000
     1.0000   1.0000   1.0000   1.0000   1.0000   1.0000  -0.0960  -0.0960
    -0.0011  -0.0011   0.0000   0.0000   0.0000   0.0000   0.0000   0.0000
     0.0000   0.0000   0.0000   0.0000   0.0000   0.0000   0.0000   0.0000
     0.0000   0.0000   0.0000   0.0000   0.0000   0.0000   0.0000   0.0000
     0.0000   0.0000   0.0000   0.0000   0.0000   0.0000   0.0000   0.0000
     0.0000   0.0000   0.0000   0.0000   0.0000   0.0000   0.0000   0.0000
     0.0000   0.0000   0.0000   0.0000   0.0000   0.0000   0.0000   0.0000
     0.0000   0.0000   0.0000   0.0000   0.0000   0.0000   0.0000   0.0000
     0.0000   0.0000   0.0000   0.0000   0.0000   0.0000   0.0000   0.0000
     0.0000   0.0000   0.0000   0.0000   0.0000   0.0000   0.0000   0.0000
     0.0000   0.0000   0.0000   0.0000   0.0000   0.0000   0.0000   0.0000
     0.0000   0.0000   0.0000   0.0000   0.0000   0.0000   0.0000   0.0000
     0.0000   0.0000   0.0000   0.0000   0.0000   0.0000   0.0000   0.0000
     0.0000   0.0000   0.0000   0.0000   0.0000   0.0000   0.0000   0.0000
     0.0000   0.0000   0.0000   0.0000   0.0000   0.0000   0.0000   0.0000
     0.0000   0.0000   0.0000   0.0000   0.0000   0.0000   0.0000   0.0000

     the Fermi energy is    12.4305 ev
     (compare with:    12.0191 eV, computed in scf)

     Writing all to output data dir ./Bi2Pd/Bi2Pd.save/
 
     init_run     :      0.47s CPU      0.61s WALL (       1 calls)
     electrons    :    740.45s CPU    755.66s WALL (       1 calls)

     Called by init_run:
     wfcinit      :      0.00s CPU      0.00s WALL (       1 calls)
     wfcinit:atom :      0.03s CPU      0.03s WALL (      59 calls)
     wfcinit:wfcr :     27.45s CPU     28.13s WALL (      59 calls)
     potinit      :      0.02s CPU      0.04s WALL (       1 calls)
     hinit0       :      0.20s CPU      0.21s WALL (       1 calls)

     Called by electrons:
     c_bands      :    740.24s CPU    755.44s WALL (       1 calls)
     v_of_rho     :      0.00s CPU      0.01s WALL (       1 calls)
     v_h          :      0.00s CPU      0.00s WALL (       1 calls)
     v_xc         :      0.00s CPU      0.01s WALL (       1 calls)
     newd         :      0.23s CPU      0.34s WALL (       1 calls)

     Called by c_bands:
     init_us_2    :      0.02s CPU      0.02s WALL (      59 calls)
     init_us_2:cp :      0.02s CPU      0.02s WALL (      59 calls)
     cegterg      :    711.68s CPU    726.14s WALL (     140 calls)

     Called by sum_band:

     Called by *egterg:
     cdiaghg      :     47.29s CPU     49.34s WALL (    2482 calls)
     cegterg:over :     34.71s CPU     35.31s WALL (    2423 calls)
     cegterg:upda :     21.66s CPU     21.92s WALL (    2423 calls)
     cegterg:last :     59.44s CPU     59.76s WALL (    1321 calls)
     cdiaghg:chol :      0.89s CPU      0.91s WALL (    2482 calls)
     cdiaghg:inve :      0.35s CPU      0.35s WALL (    2482 calls)
     cdiaghg:para :      8.77s CPU      9.18s WALL (    4964 calls)
     h_psi        :    562.17s CPU    573.69s WALL (    2622 calls)
     s_psi        :      7.46s CPU      7.66s WALL (    2622 calls)
     g_psi        :      0.82s CPU      0.83s WALL (    2423 calls)

     Called by h_psi:
     h_psi:calbec :      6.89s CPU      7.03s WALL (    2622 calls)
     vloc_psi     :    545.92s CPU    557.14s WALL (    2622 calls)
     add_vuspsi   :      8.03s CPU      8.11s WALL (    2622 calls)

     General routines
     calbec       :      6.88s CPU      7.03s WALL (    2622 calls)
     fft          :      0.02s CPU      0.02s WALL (      12 calls)
     ffts         :      0.00s CPU      0.00s WALL (       4 calls)
     fftw         :    265.27s CPU    270.59s WALL (  840520 calls)
     interpolate  :      0.01s CPU      0.01s WALL (       4 calls)
     davcio       :      0.17s CPU      0.22s WALL (     118 calls)
 
     Parallel routines
 
     PWSCF        :  12m21.53s CPU  12m37.46s WALL

 
   This run was terminated on:  11:53: 6   8Jan2024            

=------------------------------------------------------------------------------=
   JOB DONE.
=------------------------------------------------------------------------------=
