
     Program PWSCF v.7.2 starts on  8Jan2024 at 11:36:39 

     This program is part of the open-source Quantum ESPRESSO suite
     for quantum simulation of materials; please cite
         "P. Giannozzi et al., J. Phys.:Condens. Matter 21 395502 (2009);
         "P. Giannozzi et al., J. Phys.:Condens. Matter 29 465901 (2017);
         "P. Giannozzi et al., J. Chem. Phys. 152 154105 (2020);
          URL http://www.quantum-espresso.org", 
     in publications or presentations arising from this work. More details at
     http://www.quantum-espresso.org/quote

     Parallel version (MPI), running on     4 processors

     MPI processes distributed on     1 nodes
     10724 MiB available memory on the printing compute node when the environment starts
 
     Waiting for input...
     Reading input from standard input

     Current dimensions of program PWSCF are:
     Max number of different atomic species (ntypx) = 10
     Max number of k-points (npk) =  40000
     Max angular momentum in pseudopotentials (lmaxx) =  4
     file Bi.rel-pz-dn-rrkjus_psl.1.0.0.UPF: wavefunction(s)  5D 5D renormalized
     file Pd.rel-pz-n-rrkjus_psl.1.0.0.UPF: wavefunction(s)  4D 4D renormalized
 
     R & G space division:  proc/nbgrp/npool/nimage =       4
     Subspace diagonalization in iterative solution of the eigenvalue problem:
     a serial algorithm will be used

 
     Parallelization info
     --------------------
     sticks:   dense  smooth     PW     G-vecs:    dense   smooth      PW
     Min         888     393    126                27174     8061    1480
     Max         889     394    127                27175     8062    1481
     Sum        3553    1573    505               108697    32245    5923
 
     Using Slab Decomposition
 


     bravais-lattice index     =            7
     lattice parameter (alat)  =       6.3999  a.u.
     unit-cell volume          =     512.6613 (a.u.)^3
     number of atoms/cell      =            3
     number of atomic types    =            2
     number of electrons       =        40.00
     number of Kohn-Sham states=           48
     kinetic-energy cutoff     =      60.0000  Ry
     charge density cutoff     =     540.0000  Ry
     scf convergence threshold =      1.0E-08
     mixing beta               =       0.1000
     number of iterations used =            8  plain     mixing
     Exchange-correlation= LDA
                           (   1   1   0   0   0   0   0)
     Non magnetic calculation with spin-orbit


     celldm(1)=   6.399898  celldm(2)=   0.000000  celldm(3)=   3.911483
     celldm(4)=   0.000000  celldm(5)=   0.000000  celldm(6)=   0.000000

     crystal axes: (cart. coord. in units of alat)
               a(1) = (   0.500000  -0.500000   1.955741 )  
               a(2) = (   0.500000   0.500000   1.955741 )  
               a(3) = (  -0.500000  -0.500000   1.955741 )  

     reciprocal axes: (cart. coord. in units 2 pi/alat)
               b(1) = (  1.000000 -1.000000  0.000000 )  
               b(2) = (  0.000000  1.000000  0.255658 )  
               b(3) = ( -1.000000  0.000000  0.255658 )  


     PseudoPot. # 1 for Bi read from file:
     ~/q-e/pseudo/pslibrary/rel-pz/PSEUDOPOTENTIALS/Bi.rel-pz-dn-rrkjus_psl.1.0.0.UPF
     MD5 check sum: Not computed, couldn't open file
     Pseudo is Ultrasoft + core correction, Zval = 15.0
     Generated using 'atomic' code by A. Dal Corso  v.7.2
     Using radial grid of 1283 points, 10 beta functions with: 
                l(1) =   0
                l(2) =   0
                l(3) =   1
                l(4) =   1
                l(5) =   1
                l(6) =   1
                l(7) =   2
                l(8) =   2
                l(9) =   2
               l(10) =   2
     Q(r) pseudized with 0 coefficients 


     PseudoPot. # 2 for Pd read from file:
     ~/q-e/pseudo/pslibrary/rel-pz/PSEUDOPOTENTIALS/Pd.rel-pz-n-rrkjus_psl.1.0.0.UPF
     MD5 check sum: Not computed, couldn't open file
     Pseudo is Ultrasoft + core correction, Zval = 10.0
     Generated using 'atomic' code by A. Dal Corso  v.7.2
     Using radial grid of 1235 points, 10 beta functions with: 
                l(1) =   0
                l(2) =   0
                l(3) =   1
                l(4) =   1
                l(5) =   1
                l(6) =   1
                l(7) =   2
                l(8) =   2
                l(9) =   2
               l(10) =   2
     Q(r) pseudized with 0 coefficients 


     atomic species   valence    mass     pseudopotential
     Bi               15.00   208.98000     Bi( 1.00)
     Pd               10.00   106.42000     Pd( 1.00)

     16 Sym. Ops., with inversion, found


                                    s                        frac. trans.

      isym =  1     identity                                     

 cryst.   s( 1) = (     1          0          0      )
                  (     0          1          0      )
                  (     0          0          1      )

 cart.    s( 1) = (  1.0000000  0.0000000  0.0000000 )
                  (  0.0000000  1.0000000  0.0000000 )
                  (  0.0000000  0.0000000  1.0000000 )


      isym =  2     180 deg rotation - cart. axis [0,0,1]        

 cryst.   s( 2) = (    -1          1          1      )
                  (     0          0          1      )
                  (     0          1          0      )

 cart.    s( 2) = ( -1.0000000  0.0000000  0.0000000 )
                  (  0.0000000 -1.0000000  0.0000000 )
                  (  0.0000000  0.0000000  1.0000000 )


      isym =  3     180 deg rotation - cart. axis [0,1,0]        

 cryst.   s( 3) = (     0         -1          0      )
                  (    -1          0          0      )
                  (     1         -1         -1      )

 cart.    s( 3) = ( -1.0000000  0.0000000  0.0000000 )
                  (  0.0000000  1.0000000  0.0000000 )
                  (  0.0000000  0.0000000 -1.0000000 )


      isym =  4     180 deg rotation - cart. axis [1,0,0]        

 cryst.   s( 4) = (     0          0         -1      )
                  (     1         -1         -1      )
                  (    -1          0          0      )

 cart.    s( 4) = (  1.0000000  0.0000000  0.0000000 )
                  (  0.0000000 -1.0000000  0.0000000 )
                  (  0.0000000  0.0000000 -1.0000000 )


      isym =  5     180 deg rotation - cart. axis [1,1,0]        

 cryst.   s( 5) = (    -1          0          0      )
                  (     0          0         -1      )
                  (     0         -1          0      )

 cart.    s( 5) = (  0.0000000  1.0000000  0.0000000 )
                  (  1.0000000  0.0000000  0.0000000 )
                  (  0.0000000  0.0000000 -1.0000000 )


      isym =  6     180 deg rotation - cart. axis [1,-1,0]       

 cryst.   s( 6) = (     1         -1         -1      )
                  (     0         -1          0      )
                  (     0          0         -1      )

 cart.    s( 6) = (  0.0000000 -1.0000000  0.0000000 )
                  ( -1.0000000  0.0000000  0.0000000 )
                  (  0.0000000  0.0000000 -1.0000000 )


      isym =  7      90 deg rotation - cart. axis [0,0,-1]       

 cryst.   s( 7) = (     0          0          1      )
                  (     1          0          0      )
                  (    -1          1          1      )

 cart.    s( 7) = (  0.0000000  1.0000000  0.0000000 )
                  ( -1.0000000  0.0000000  0.0000000 )
                  (  0.0000000  0.0000000  1.0000000 )


      isym =  8      90 deg rotation - cart. axis [0,0,1]        

 cryst.   s( 8) = (     0          1          0      )
                  (    -1          1          1      )
                  (     1          0          0      )

 cart.    s( 8) = (  0.0000000 -1.0000000  0.0000000 )
                  (  1.0000000  0.0000000  0.0000000 )
                  (  0.0000000  0.0000000  1.0000000 )


      isym =  9     inversion                                    

 cryst.   s( 9) = (    -1          0          0      )
                  (     0         -1          0      )
                  (     0          0         -1      )

 cart.    s( 9) = ( -1.0000000  0.0000000  0.0000000 )
                  (  0.0000000 -1.0000000  0.0000000 )
                  (  0.0000000  0.0000000 -1.0000000 )


      isym = 10     inv. 180 deg rotation - cart. axis [0,0,1]   

 cryst.   s(10) = (     1         -1         -1      )
                  (     0          0         -1      )
                  (     0         -1          0      )

 cart.    s(10) = (  1.0000000  0.0000000  0.0000000 )
                  (  0.0000000  1.0000000  0.0000000 )
                  (  0.0000000  0.0000000 -1.0000000 )


      isym = 11     inv. 180 deg rotation - cart. axis [0,1,0]   

 cryst.   s(11) = (     0          1          0      )
                  (     1          0          0      )
                  (    -1          1          1      )

 cart.    s(11) = (  1.0000000  0.0000000  0.0000000 )
                  (  0.0000000 -1.0000000  0.0000000 )
                  (  0.0000000  0.0000000  1.0000000 )


      isym = 12     inv. 180 deg rotation - cart. axis [1,0,0]   

 cryst.   s(12) = (     0          0          1      )
                  (    -1          1          1      )
                  (     1          0          0      )

 cart.    s(12) = ( -1.0000000  0.0000000  0.0000000 )
                  (  0.0000000  1.0000000  0.0000000 )
                  (  0.0000000  0.0000000  1.0000000 )


      isym = 13     inv. 180 deg rotation - cart. axis [1,1,0]   

 cryst.   s(13) = (     1          0          0      )
                  (     0          0          1      )
                  (     0          1          0      )

 cart.    s(13) = (  0.0000000 -1.0000000  0.0000000 )
                  ( -1.0000000  0.0000000  0.0000000 )
                  (  0.0000000  0.0000000  1.0000000 )


      isym = 14     inv. 180 deg rotation - cart. axis [1,-1,0]  

 cryst.   s(14) = (    -1          1          1      )
                  (     0          1          0      )
                  (     0          0          1      )

 cart.    s(14) = (  0.0000000  1.0000000  0.0000000 )
                  (  1.0000000  0.0000000  0.0000000 )
                  (  0.0000000  0.0000000  1.0000000 )


      isym = 15     inv.  90 deg rotation - cart. axis [0,0,-1]  

 cryst.   s(15) = (     0          0         -1      )
                  (    -1          0          0      )
                  (     1         -1         -1      )

 cart.    s(15) = (  0.0000000 -1.0000000  0.0000000 )
                  (  1.0000000  0.0000000  0.0000000 )
                  (  0.0000000  0.0000000 -1.0000000 )


      isym = 16     inv.  90 deg rotation - cart. axis [0,0,1]   

 cryst.   s(16) = (     0         -1          0      )
                  (     1         -1         -1      )
                  (    -1          0          0      )

 cart.    s(16) = (  0.0000000  1.0000000  0.0000000 )
                  ( -1.0000000  0.0000000  0.0000000 )
                  (  0.0000000  0.0000000 -1.0000000 )


     double point group D_4h(4/mmm)
     there are 14 classes and  4 irreducible representations
     the character table:

       E     -E    2C4   -2C4   C2    2C2' 2C2'' i     -i    2S4   -2S4   s_h 
                               -C2   -2C2' -2C2'                         -s_h 
G_6+   2.00 -2.00  1.41 -1.41  0.00  0.00  0.00  2.00 -2.00  1.41 -1.41  0.00
G_7+   2.00 -2.00 -1.41  1.41  0.00  0.00  0.00  2.00 -2.00 -1.41  1.41  0.00
G_6-   2.00 -2.00  1.41 -1.41  0.00  0.00  0.00 -2.00  2.00 -1.41  1.41  0.00
G_7-   2.00 -2.00 -1.41  1.41  0.00  0.00  0.00 -2.00  2.00  1.41 -1.41  0.00

        2s_v  2s_d
       -2s_v -2s_d
G_6+   0.00  0.00
G_7+   0.00  0.00
G_6-   0.00  0.00
G_7-   0.00  0.00

     the symmetry operations in each class and the name of the first element:

     E             1
          identity                                               
     -E           -1
          identity E                                             
     2C4           7    8
           90 deg rotation - cart. axis [0,0,-1]                 
     -2C4         -7   -8
           90 deg rotation - cart. axis [0,0,-1] E               
      C2  -C2      2   -2
          180 deg rotation - cart. axis [0,0,1]                  
      2C2'-2C2'    3   -3    4   -4
          180 deg rotation - cart. axis [0,1,0]                  
     2C2''-2C2'    5   -5   -6    6
          180 deg rotation - cart. axis [1,1,0]                  
     i             9
          inversion                                              
     -i           -9
          inversion E                                            
     2S4          15   16
          inv.  90 deg rotation - cart. axis [0,0,-1]            
     -2S4        -15  -16
          inv.  90 deg rotation - cart. axis [0,0,-1] E          
      s_h -s_h    10  -10
          inv. 180 deg rotation - cart. axis [0,0,1]             
      2s_v-2s_v   11  -11   12  -12
          inv. 180 deg rotation - cart. axis [0,1,0]             
      2s_d-2s_d   13  -13  -14   14
          inv. 180 deg rotation - cart. axis [1,1,0]             

   Cartesian axes

     site n.     atom                  positions (alat units)
         1        Bi     tau(   1) = (   0.5000000   0.5000000   0.5175674  )
         2        Bi     tau(   2) = (   0.0000000   0.0000000   1.4381739  )
         3        Pd     tau(   3) = (   0.0000000   0.0000000   0.0000000  )

   Crystallographic axes

     site n.     atom                  positions (cryst. coord.)
         1        Bi     tau(   1) = (  0.0000000  0.6323200 -0.3676800  )
         2        Bi     tau(   2) = (  0.0000000  0.3676800  0.3676800  )
         3        Pd     tau(   3) = (  0.0000000  0.0000000  0.0000000  )

     number of k points=    13  Methfessel-Paxton smearing, width (Ry)=  0.0100
                       cart. coord. in units 2pi/alat
        k(    1) = (   0.0000000   0.0000000   0.0000000), wk =   0.0156250
        k(    2) = (  -0.2500000   0.0000000   0.0639144), wk =   0.1250000
        k(    3) = (   0.5000000   0.0000000  -0.1278288), wk =   0.0625000
        k(    4) = (  -0.2500000   0.2500000   0.1278288), wk =   0.1250000
        k(    5) = (   0.5000000   0.2500000  -0.0639144), wk =   0.2500000
        k(    6) = (   0.2500000   0.2500000   0.0000000), wk =   0.0625000
        k(    7) = (   0.5000000  -0.5000000  -0.2556575), wk =   0.0312500
        k(    8) = (   0.0000000   0.0000000   0.1278288), wk =   0.0312500
        k(    9) = (   0.7500000   0.0000000  -0.0639144), wk =   0.1250000
        k(   10) = (   0.5000000   0.0000000   0.0000000), wk =   0.0625000
        k(   11) = (   0.7500000  -0.7500000  -0.2556575), wk =   0.0625000
        k(   12) = (   0.5000000  -0.5000000  -0.1278288), wk =   0.0312500
        k(   13) = (   0.0000000   0.0000000  -0.2556575), wk =   0.0156250

                       cryst. coord.
        k(    1) = (   0.0000000   0.0000000   0.0000000), wk =   0.0156250
        k(    2) = (   0.0000000   0.0000000   0.2500000), wk =   0.1250000
        k(    3) = (   0.0000000   0.0000000  -0.5000000), wk =   0.0625000
        k(    4) = (   0.0000000   0.2500000   0.2500000), wk =   0.1250000
        k(    5) = (   0.0000000   0.2500000  -0.5000000), wk =   0.2500000
        k(    6) = (   0.0000000   0.2500000  -0.2500000), wk =   0.0625000
        k(    7) = (   0.0000000  -0.5000000  -0.5000000), wk =   0.0312500
        k(    8) = (   0.2500000   0.2500000   0.2500000), wk =   0.0312500
        k(    9) = (   0.2500000   0.2500000  -0.5000000), wk =   0.1250000
        k(   10) = (   0.2500000   0.2500000  -0.2500000), wk =   0.0625000
        k(   11) = (   0.2500000  -0.5000000  -0.5000000), wk =   0.0625000
        k(   12) = (   0.2500000  -0.2500000  -0.2500000), wk =   0.0312500
        k(   13) = (  -0.5000000  -0.5000000  -0.5000000), wk =   0.0156250

     Dense  grid:   108697 G-vectors     FFT dimensions: ( 100, 100, 100)

     Smooth grid:    32245 G-vectors     FFT dimensions: (  72,  72,  72)

     Dynamical RAM for                 wfc:       1.47 MB

     Dynamical RAM for     wfc (w. buffer):      20.63 MB

     Dynamical RAM for           str. fact:       0.83 MB

     Dynamical RAM for           local pot:       0.00 MB

     Dynamical RAM for          nlocal pot:       1.57 MB

     Dynamical RAM for                qrad:       9.76 MB

     Dynamical RAM for          rho,v,vnew:      27.86 MB

     Dynamical RAM for               rhoin:       9.29 MB

     Dynamical RAM for            rho*nmix:      26.54 MB

     Dynamical RAM for           G-vectors:       1.62 MB

     Dynamical RAM for          h,s,v(r/c):       0.42 MB

     Dynamical RAM for          <psi|beta>:       0.15 MB

     Dynamical RAM for                 psi:       2.95 MB

     Dynamical RAM for                hpsi:       2.95 MB

     Dynamical RAM for                spsi:       2.95 MB

     Dynamical RAM for      wfcinit/wfcrot:       2.55 MB

     Dynamical RAM for           addusdens:     253.76 MB

     Estimated static dynamical RAM per process >      88.06 MB

     Estimated max dynamical RAM per process >     368.36 MB

     Estimated total dynamical RAM >       1.44 GB

     Initial potential from superposition of free atoms

     starting charge      39.9983, renormalised to      40.0000
     Starting wfcs are   54 randomized atomic wfcs

     total cpu time spent up to now is        2.6 secs

     Self-consistent Calculation

     iteration #  1     ecut=    60.00 Ry     beta= 0.10
     Davidson diagonalization with overlap

---- Real-time Memory Report at c_bands before calling an iterative solver
           405 MiB given to the printing process from OS
             0 MiB allocation reported by mallinfo(arena+hblkhd)
         10252 MiB available memory on the node where the printing process lives
------------------
     ethr =  1.00E-02,  avg # of iterations =  3.0

     Threshold (ethr) on eigenvalues was too large:
     Diagonalizing with lowered threshold

     Davidson diagonalization with overlap

---- Real-time Memory Report at c_bands before calling an iterative solver
           463 MiB given to the printing process from OS
             0 MiB allocation reported by mallinfo(arena+hblkhd)
         10208 MiB available memory on the node where the printing process lives
------------------
     ethr =  1.46E-04,  avg # of iterations =  4.2

     total cpu time spent up to now is       15.6 secs

     total energy              =    -377.17199855 Ry
     estimated scf accuracy    <       0.06523307 Ry

     iteration #  2     ecut=    60.00 Ry     beta= 0.10
     Davidson diagonalization with overlap

---- Real-time Memory Report at c_bands before calling an iterative solver
           474 MiB given to the printing process from OS
             0 MiB allocation reported by mallinfo(arena+hblkhd)
         10174 MiB available memory on the node where the printing process lives
------------------
     ethr =  1.63E-04,  avg # of iterations =  1.0

     total cpu time spent up to now is       21.4 secs

     total energy              =    -377.16347010 Ry
     estimated scf accuracy    <       0.03530223 Ry

     iteration #  3     ecut=    60.00 Ry     beta= 0.10
     Davidson diagonalization with overlap

---- Real-time Memory Report at c_bands before calling an iterative solver
           477 MiB given to the printing process from OS
             0 MiB allocation reported by mallinfo(arena+hblkhd)
         10170 MiB available memory on the node where the printing process lives
------------------
     ethr =  8.83E-05,  avg # of iterations =  1.9

     total cpu time spent up to now is       28.2 secs

     total energy              =    -377.16028790 Ry
     estimated scf accuracy    <       0.01352986 Ry

     iteration #  4     ecut=    60.00 Ry     beta= 0.10
     Davidson diagonalization with overlap

---- Real-time Memory Report at c_bands before calling an iterative solver
           478 MiB given to the printing process from OS
             0 MiB allocation reported by mallinfo(arena+hblkhd)
         10168 MiB available memory on the node where the printing process lives
------------------
     ethr =  3.38E-05,  avg # of iterations =  2.1

     total cpu time spent up to now is       35.4 secs

     total energy              =    -377.15999850 Ry
     estimated scf accuracy    <       0.00340265 Ry

     iteration #  5     ecut=    60.00 Ry     beta= 0.10
     Davidson diagonalization with overlap

---- Real-time Memory Report at c_bands before calling an iterative solver
           480 MiB given to the printing process from OS
             0 MiB allocation reported by mallinfo(arena+hblkhd)
         10157 MiB available memory on the node where the printing process lives
------------------
     ethr =  8.51E-06,  avg # of iterations =  3.8

     total cpu time spent up to now is       43.1 secs

     total energy              =    -377.15922473 Ry
     estimated scf accuracy    <       0.00512392 Ry

     iteration #  6     ecut=    60.00 Ry     beta= 0.10
     Davidson diagonalization with overlap

---- Real-time Memory Report at c_bands before calling an iterative solver
           480 MiB given to the printing process from OS
             0 MiB allocation reported by mallinfo(arena+hblkhd)
         10146 MiB available memory on the node where the printing process lives
------------------
     ethr =  8.51E-06,  avg # of iterations =  2.1

     total cpu time spent up to now is       51.4 secs

     total energy              =    -377.16068978 Ry
     estimated scf accuracy    <       0.00140927 Ry

     iteration #  7     ecut=    60.00 Ry     beta= 0.10
     Davidson diagonalization with overlap

---- Real-time Memory Report at c_bands before calling an iterative solver
           481 MiB given to the printing process from OS
             0 MiB allocation reported by mallinfo(arena+hblkhd)
         10140 MiB available memory on the node where the printing process lives
------------------
     ethr =  3.52E-06,  avg # of iterations =  1.3

     total cpu time spent up to now is       58.2 secs

     total energy              =    -377.16065316 Ry
     estimated scf accuracy    <       0.00055528 Ry

     iteration #  8     ecut=    60.00 Ry     beta= 0.10
     Davidson diagonalization with overlap

---- Real-time Memory Report at c_bands before calling an iterative solver
           482 MiB given to the printing process from OS
             0 MiB allocation reported by mallinfo(arena+hblkhd)
         10134 MiB available memory on the node where the printing process lives
------------------
     ethr =  1.39E-06,  avg # of iterations =  1.8

     total cpu time spent up to now is       65.0 secs

     total energy              =    -377.16066476 Ry
     estimated scf accuracy    <       0.00009956 Ry

     iteration #  9     ecut=    60.00 Ry     beta= 0.10
     Davidson diagonalization with overlap

---- Real-time Memory Report at c_bands before calling an iterative solver
           483 MiB given to the printing process from OS
             0 MiB allocation reported by mallinfo(arena+hblkhd)
         10132 MiB available memory on the node where the printing process lives
------------------
     ethr =  2.49E-07,  avg # of iterations =  2.2

     total cpu time spent up to now is       72.0 secs

     total energy              =    -377.16067304 Ry
     estimated scf accuracy    <       0.00001036 Ry

     iteration # 10     ecut=    60.00 Ry     beta= 0.10
     Davidson diagonalization with overlap

---- Real-time Memory Report at c_bands before calling an iterative solver
           484 MiB given to the printing process from OS
             0 MiB allocation reported by mallinfo(arena+hblkhd)
         10122 MiB available memory on the node where the printing process lives
------------------
     ethr =  2.59E-08,  avg # of iterations =  2.8

     total cpu time spent up to now is       79.8 secs

     total energy              =    -377.16067464 Ry
     estimated scf accuracy    <       0.00000078 Ry

     iteration # 11     ecut=    60.00 Ry     beta= 0.10
     Davidson diagonalization with overlap

---- Real-time Memory Report at c_bands before calling an iterative solver
           484 MiB given to the printing process from OS
             0 MiB allocation reported by mallinfo(arena+hblkhd)
         10122 MiB available memory on the node where the printing process lives
------------------
     ethr =  1.95E-09,  avg # of iterations =  3.5

     total cpu time spent up to now is       88.4 secs

     total energy              =    -377.16067475 Ry
     estimated scf accuracy    <       0.00000160 Ry

     iteration # 12     ecut=    60.00 Ry     beta= 0.10
     Davidson diagonalization with overlap

---- Real-time Memory Report at c_bands before calling an iterative solver
           484 MiB given to the printing process from OS
             0 MiB allocation reported by mallinfo(arena+hblkhd)
         10123 MiB available memory on the node where the printing process lives
------------------
     ethr =  1.95E-09,  avg # of iterations =  2.1

     total cpu time spent up to now is       95.9 secs

     total energy              =    -377.16067498 Ry
     estimated scf accuracy    <       0.00000005 Ry

     iteration # 13     ecut=    60.00 Ry     beta= 0.10
     Davidson diagonalization with overlap

---- Real-time Memory Report at c_bands before calling an iterative solver
           484 MiB given to the printing process from OS
             0 MiB allocation reported by mallinfo(arena+hblkhd)
         10149 MiB available memory on the node where the printing process lives
------------------
     ethr =  1.22E-10,  avg # of iterations =  2.8

     total cpu time spent up to now is      103.9 secs

     total energy              =    -377.16067499 Ry
     estimated scf accuracy    <       0.00000003 Ry

     iteration # 14     ecut=    60.00 Ry     beta= 0.10
     Davidson diagonalization with overlap

---- Real-time Memory Report at c_bands before calling an iterative solver
           484 MiB given to the printing process from OS
             0 MiB allocation reported by mallinfo(arena+hblkhd)
         10150 MiB available memory on the node where the printing process lives
------------------
     ethr =  7.78E-11,  avg # of iterations =  2.0

     total cpu time spent up to now is      111.7 secs

     total energy              =    -377.16067501 Ry
     estimated scf accuracy    <       0.00000001 Ry

     iteration # 15     ecut=    60.00 Ry     beta= 0.10
     Davidson diagonalization with overlap

---- Real-time Memory Report at c_bands before calling an iterative solver
           484 MiB given to the printing process from OS
             0 MiB allocation reported by mallinfo(arena+hblkhd)
         10152 MiB available memory on the node where the printing process lives
------------------
     ethr =  2.98E-11,  avg # of iterations =  2.0

     total cpu time spent up to now is      118.7 secs

     End of self-consistent calculation

          k = 0.0000 0.0000 0.0000 (  4023 PWs)   bands (ev):

   -11.9954 -11.9954 -11.9931 -11.9931 -11.9882 -11.9882 -11.9613 -11.9613
    -9.0508  -9.0508  -9.0490  -9.0490  -9.0243  -9.0243  -8.9744  -8.9744
    -8.9203  -8.9203  -8.9137  -8.9137  -0.8878  -0.8878   0.8359   0.8359
     6.2097   6.2097   8.4388   8.4388   8.8995   8.8995   9.3169   9.3169
     9.7287   9.7287   9.7988   9.7988  12.4282  12.4282  14.5963  14.5963
    15.0103  15.0103  15.5040  15.5040  16.5240  16.5240  16.8055  16.8055

     occupation numbers 
     1.0000   1.0000   1.0000   1.0000   1.0000   1.0000   1.0000   1.0000
     1.0000   1.0000   1.0000   1.0000   1.0000   1.0000   1.0000   1.0000
     1.0000   1.0000   1.0000   1.0000   1.0000   1.0000   1.0000   1.0000
     1.0000   1.0000   1.0000   1.0000   1.0000   1.0000   1.0000   1.0000
     1.0000   1.0000   1.0000   1.0000  -0.0001  -0.0001  -0.0000  -0.0000
    -0.0000  -0.0000  -0.0000  -0.0000  -0.0000  -0.0000  -0.0000  -0.0000

          k =-0.2500 0.0000 0.0639 (  4015 PWs)   bands (ev):

   -11.9906 -11.9906 -11.9844 -11.9844 -11.9702 -11.9702 -11.9583 -11.9583
    -9.0326  -9.0326  -9.0236  -9.0236  -8.9902  -8.9902  -8.9672  -8.9672
    -8.9371  -8.9371  -8.9306  -8.9306  -0.1203  -0.1203   1.2288   1.2288
     7.1731   7.1731   8.2559   8.2559   8.7075   8.7075   9.1344   9.1344
     9.4676   9.4676   9.6468   9.6468  10.5775  10.5775  11.2205  11.2205
    14.2591  14.2591  15.7811  15.7811  16.4158  16.4158  18.2456  18.2456

     occupation numbers 
     1.0000   1.0000   1.0000   1.0000   1.0000   1.0000   1.0000   1.0000
     1.0000   1.0000   1.0000   1.0000   1.0000   1.0000   1.0000   1.0000
     1.0000   1.0000   1.0000   1.0000   1.0000   1.0000   1.0000   1.0000
     1.0000   1.0000   1.0000   1.0000   1.0000   1.0000   1.0000   1.0000
     1.0000   1.0000   1.0000   1.0000   1.0000   1.0000   1.0000   1.0000
    -0.0000  -0.0000  -0.0000  -0.0000  -0.0000  -0.0000  -0.0000  -0.0000

          k = 0.5000 0.0000-0.1278 (  4044 PWs)   bands (ev):

   -11.9903 -11.9903 -11.9853 -11.9853 -11.9507 -11.9507 -11.9490 -11.9490
    -9.0334  -9.0334  -9.0182  -9.0182  -8.9871  -8.9871  -8.9590  -8.9590
    -8.9256  -8.9256  -8.9018  -8.9018   1.1786   1.1786   1.6963   1.6963
     6.2468   6.2468   7.5737   7.5737   8.6814   8.6814   8.9411   8.9411
     9.2586   9.2586   9.6116   9.6116  10.1186  10.1186  10.6069  10.6069
    13.3030  13.3030  16.0730  16.0730  16.7232  16.7232  17.6929  17.6929

     occupation numbers 
     1.0000   1.0000   1.0000   1.0000   1.0000   1.0000   1.0000   1.0000
     1.0000   1.0000   1.0000   1.0000   1.0000   1.0000   1.0000   1.0000
     1.0000   1.0000   1.0000   1.0000   1.0000   1.0000   1.0000   1.0000
     1.0000   1.0000   1.0000   1.0000   1.0000   1.0000   1.0000   1.0000
     1.0000   1.0000   1.0000   1.0000   1.0000   1.0000   1.0000   1.0000
    -0.0000  -0.0000  -0.0000  -0.0000  -0.0000  -0.0000  -0.0000  -0.0000

          k =-0.2500 0.2500 0.1278 (  4032 PWs)   bands (ev):

   -11.9780 -11.9780 -11.9679 -11.9679 -11.9643 -11.9643 -11.9618 -11.9618
    -8.9987  -8.9987  -8.9851  -8.9851  -8.9728  -8.9728  -8.9682  -8.9682
    -8.9584  -8.9584  -8.9471  -8.9471   0.6587   0.6587   1.5921   1.5921
     7.8393   7.8393   8.3199   8.3199   8.6731   8.6731   8.8505   8.8505
     9.3469   9.3469   9.5843   9.5843  11.1772  11.1772  11.4189  11.4189
    11.9981  11.9981  13.3902  13.3902  14.4612  14.4612  17.5701  17.5701

     occupation numbers 
     1.0000   1.0000   1.0000   1.0000   1.0000   1.0000   1.0000   1.0000
     1.0000   1.0000   1.0000   1.0000   1.0000   1.0000   1.0000   1.0000
     1.0000   1.0000   1.0000   1.0000   1.0000   1.0000   1.0000   1.0000
     1.0000   1.0000   1.0000   1.0000   1.0000   1.0000   1.0000   1.0000
     1.0000   1.0000   1.0000   1.0000   1.0000   1.0000   1.0000   1.0000
     0.6291   0.6291  -0.0000  -0.0000  -0.0000  -0.0000  -0.0000  -0.0000

          k = 0.5000 0.2500-0.0639 (  4031 PWs)   bands (ev):

   -11.9785 -11.9785 -11.9677 -11.9677 -11.9499 -11.9499 -11.9490 -11.9490
    -9.0108  -9.0108  -9.0020  -9.0020  -8.9746  -8.9746  -8.9595  -8.9595
    -8.9189  -8.9189  -8.9056  -8.9056   1.6920   1.6920   2.3713   2.3713
     7.0400   7.0400   7.4755   7.4755   8.3726   8.3726   8.7837   8.7837
     9.3137   9.3137  10.2605  10.2605  10.5187  10.5187  11.0065  11.0065
    12.5313  12.5313  13.5260  13.5260  14.5384  14.5384  15.7102  15.7102

     occupation numbers 
     1.0000   1.0000   1.0000   1.0000   1.0000   1.0000   1.0000   1.0000
     1.0000   1.0000   1.0000   1.0000   1.0000   1.0000   1.0000   1.0000
     1.0000   1.0000   1.0000   1.0000   1.0000   1.0000   1.0000   1.0000
     1.0000   1.0000   1.0000   1.0000   1.0000   1.0000   1.0000   1.0000
     1.0000   1.0000   1.0000   1.0000   1.0000   1.0000   1.0000   1.0000
    -0.0000  -0.0000  -0.0000  -0.0000  -0.0000  -0.0000  -0.0000  -0.0000

          k = 0.2500 0.2500 0.0000 (  4011 PWs)   bands (ev):

   -11.9801 -11.9801 -11.9665 -11.9665 -11.9642 -11.9642 -11.9604 -11.9604
    -9.0001  -9.0001  -8.9812  -8.9812  -8.9719  -8.9719  -8.9687  -8.9687
    -8.9625  -8.9625  -8.9453  -8.9453   0.5142   0.5142   1.8393   1.8393
     7.4661   7.4661   8.2800   8.2800   8.7337   8.7337   8.8835   8.8835
     9.4792   9.4792   9.6083   9.6083  11.0353  11.0353  11.3963  11.3963
    12.1592  12.1592  12.7681  12.7681  15.3484  15.3484  18.0983  18.0983

     occupation numbers 
     1.0000   1.0000   1.0000   1.0000   1.0000   1.0000   1.0000   1.0000
     1.0000   1.0000   1.0000   1.0000   1.0000   1.0000   1.0000   1.0000
     1.0000   1.0000   1.0000   1.0000   1.0000   1.0000   1.0000   1.0000
     1.0000   1.0000   1.0000   1.0000   1.0000   1.0000   1.0000   1.0000
     1.0000   1.0000   1.0000   1.0000   1.0000   1.0000   1.0000   1.0000
    -0.0279  -0.0279  -0.0000  -0.0000  -0.0000  -0.0000  -0.0000  -0.0000

          k = 0.5000-0.5000-0.2557 (  4020 PWs)   bands (ev):

   -11.9742 -11.9742 -11.9600 -11.9600 -11.9435 -11.9435 -11.9427 -11.9427
    -9.0306  -9.0306  -9.0164  -9.0164  -8.9738  -8.9738  -8.9268  -8.9268
    -8.8812  -8.8812  -8.8807  -8.8807   2.4064   2.4064   3.4894   3.4894
     7.0731   7.0731   7.7274   7.7274   7.9807   7.9807   8.5265   8.5265
     9.3799   9.3799   9.5213   9.5213  10.3796  10.3796  11.4839  11.4839
    12.7683  12.7683  13.6187  13.6187  13.7556  13.7556  14.3931  14.3931

     occupation numbers 
     1.0000   1.0000   1.0000   1.0000   1.0000   1.0000   1.0000   1.0000
     1.0000   1.0000   1.0000   1.0000   1.0000   1.0000   1.0000   1.0000
     1.0000   1.0000   1.0000   1.0000   1.0000   1.0000   1.0000   1.0000
     1.0000   1.0000   1.0000   1.0000   1.0000   1.0000   1.0000   1.0000
     1.0000   1.0000   1.0000   1.0000   1.0000   1.0000   1.0000   1.0000
    -0.0000  -0.0000  -0.0000  -0.0000  -0.0000  -0.0000  -0.0000  -0.0000

          k = 0.0000 0.0000 0.1278 (  4023 PWs)   bands (ev):

   -11.9954 -11.9954 -11.9930 -11.9930 -11.9846 -11.9846 -11.9650 -11.9650
    -9.0511  -9.0511  -9.0493  -9.0493  -9.0201  -9.0201  -8.9779  -8.9779
    -8.9275  -8.9275  -8.9058  -8.9058  -0.7121  -0.7121   0.4793   0.4793
     6.8763   6.8763   8.4390   8.4390   8.9180   8.9180   9.3266   9.3266
     9.6988   9.6988   9.7998   9.7998  11.6263  11.6263  13.7571  13.7571
    15.0379  15.0379  15.1140  15.1140  17.2711  17.2711  18.1208  18.1208

     occupation numbers 
     1.0000   1.0000   1.0000   1.0000   1.0000   1.0000   1.0000   1.0000
     1.0000   1.0000   1.0000   1.0000   1.0000   1.0000   1.0000   1.0000
     1.0000   1.0000   1.0000   1.0000   1.0000   1.0000   1.0000   1.0000
     1.0000   1.0000   1.0000   1.0000   1.0000   1.0000   1.0000   1.0000
     1.0000   1.0000   1.0000   1.0000   1.0002   1.0002  -0.0000  -0.0000
    -0.0000  -0.0000  -0.0000  -0.0000  -0.0000  -0.0000  -0.0000  -0.0000

          k = 0.7500 0.0000-0.0639 (  4015 PWs)   bands (ev):

   -11.9882 -11.9882 -11.9857 -11.9857 -11.9680 -11.9680 -11.9617 -11.9617
    -9.0312  -9.0312  -9.0248  -9.0248  -8.9868  -8.9868  -8.9741  -8.9741
    -8.9392  -8.9392  -8.9245  -8.9245   0.1845   0.1845   0.7555   0.7555
     7.8137   7.8137   8.1992   8.1992   8.6086   8.6086   9.0856   9.0856
     9.4660   9.4660   9.6422   9.6422  10.8486  10.8486  11.7494  11.7494
    12.7347  12.7347  15.2638  15.2638  16.4279  16.4279  17.1716  17.1716

     occupation numbers 
     1.0000   1.0000   1.0000   1.0000   1.0000   1.0000   1.0000   1.0000
     1.0000   1.0000   1.0000   1.0000   1.0000   1.0000   1.0000   1.0000
     1.0000   1.0000   1.0000   1.0000   1.0000   1.0000   1.0000   1.0000
     1.0000   1.0000   1.0000   1.0000   1.0000   1.0000   1.0000   1.0000
     1.0000   1.0000   1.0000   1.0000   1.0000   1.0000   1.0085   1.0085
    -0.0000  -0.0000  -0.0000  -0.0000  -0.0000  -0.0000  -0.0000  -0.0000

          k = 0.5000 0.0000 0.0000 (  4028 PWs)   bands (ev):

   -11.9901 -11.9901 -11.9852 -11.9852 -11.9505 -11.9505 -11.9489 -11.9489
    -9.0336  -9.0336  -9.0178  -9.0178  -8.9871  -8.9871  -8.9586  -8.9586
    -8.9257  -8.9257  -8.9015  -8.9015   1.1778   1.1778   1.6977   1.6977
     6.2169   6.2169   7.6541   7.6541   8.6884   8.6884   8.9922   8.9922
     9.2459   9.2459   9.6178   9.6178   9.8291   9.8291  10.7038  10.7038
    13.7640  13.7640  15.4186  15.4186  16.7566  16.7566  17.1398  17.1398

     occupation numbers 
     1.0000   1.0000   1.0000   1.0000   1.0000   1.0000   1.0000   1.0000
     1.0000   1.0000   1.0000   1.0000   1.0000   1.0000   1.0000   1.0000
     1.0000   1.0000   1.0000   1.0000   1.0000   1.0000   1.0000   1.0000
     1.0000   1.0000   1.0000   1.0000   1.0000   1.0000   1.0000   1.0000
     1.0000   1.0000   1.0000   1.0000   1.0000   1.0000   1.0000   1.0000
    -0.0000  -0.0000  -0.0000  -0.0000  -0.0000  -0.0000  -0.0000  -0.0000

          k = 0.7500-0.7500-0.2557 (  4032 PWs)   bands (ev):

   -11.9743 -11.9743 -11.9692 -11.9692 -11.9667 -11.9667 -11.9619 -11.9619
    -8.9980  -8.9980  -8.9871  -8.9871  -8.9713  -8.9713  -8.9672  -8.9672
    -8.9599  -8.9599  -8.9464  -8.9464   0.9635   0.9635   1.1922   1.1922
     8.2656   8.2656   8.3640   8.3640   8.6224   8.6224   8.8605   8.8605
     9.2020   9.2020   9.5486   9.5486  10.9696  10.9696  11.4308  11.4308
    12.6419  12.6419  13.1979  13.1979  14.1405  14.1405  16.9128  16.9128

     occupation numbers 
     1.0000   1.0000   1.0000   1.0000   1.0000   1.0000   1.0000   1.0000
     1.0000   1.0000   1.0000   1.0000   1.0000   1.0000   1.0000   1.0000
     1.0000   1.0000   1.0000   1.0000   1.0000   1.0000   1.0000   1.0000
     1.0000   1.0000   1.0000   1.0000   1.0000   1.0000   1.0000   1.0000
     1.0000   1.0000   1.0000   1.0000   1.0000   1.0000   1.0000   1.0000
    -0.0000  -0.0000  -0.0000  -0.0000  -0.0000  -0.0000  -0.0000  -0.0000

          k = 0.5000-0.5000-0.1278 (  4000 PWs)   bands (ev):

   -11.9741 -11.9741 -11.9597 -11.9597 -11.9431 -11.9431 -11.9427 -11.9427
    -9.0304  -9.0304  -9.0162  -9.0162  -8.9736  -8.9736  -8.9269  -8.9269
    -8.8822  -8.8822  -8.8794  -8.8794   2.4064   2.4064   3.4893   3.4893
     7.0861   7.0861   7.6237   7.6237   8.1218   8.1218   8.5334   8.5334
     9.2763   9.2763   9.5098   9.5098  10.3803  10.3803  11.7321  11.7321
    12.5143  12.5143  13.5970  13.5970  13.6243  13.6243  14.6850  14.6850

     occupation numbers 
     1.0000   1.0000   1.0000   1.0000   1.0000   1.0000   1.0000   1.0000
     1.0000   1.0000   1.0000   1.0000   1.0000   1.0000   1.0000   1.0000
     1.0000   1.0000   1.0000   1.0000   1.0000   1.0000   1.0000   1.0000
     1.0000   1.0000   1.0000   1.0000   1.0000   1.0000   1.0000   1.0000
     1.0000   1.0000   1.0000   1.0000   1.0000   1.0000   1.0055   1.0055
    -0.0000  -0.0000  -0.0000  -0.0000  -0.0000  -0.0000  -0.0000  -0.0000

          k = 0.0000 0.0000-0.2557 (  4006 PWs)   bands (ev):

   -11.9953 -11.9953 -11.9931 -11.9931 -11.9781 -11.9781 -11.9711 -11.9711
    -9.0512  -9.0512  -9.0496  -9.0496  -9.0149  -9.0149  -8.9821  -8.9821
    -8.9309  -8.9309  -8.9016  -8.9016  -0.3201  -0.3201  -0.0714  -0.0714
     7.8136   7.8136   8.4392   8.4392   8.9733   8.9733   9.3364   9.3364
     9.5155   9.5155   9.8008   9.8008  10.6247  10.6247  13.2474  13.2474
    14.7640  14.7640  15.4692  15.4692  17.9073  17.9073  18.3893  18.3893

     occupation numbers 
     1.0000   1.0000   1.0000   1.0000   1.0000   1.0000   1.0000   1.0000
     1.0000   1.0000   1.0000   1.0000   1.0000   1.0000   1.0000   1.0000
     1.0000   1.0000   1.0000   1.0000   1.0000   1.0000   1.0000   1.0000
     1.0000   1.0000   1.0000   1.0000   1.0000   1.0000   1.0000   1.0000
     1.0000   1.0000   1.0000   1.0000   1.0000   1.0000  -0.0000  -0.0000
    -0.0000  -0.0000  -0.0000  -0.0000  -0.0000  -0.0000  -0.0000  -0.0000

     the Fermi energy is    12.0191 ev

!    total energy              =    -377.16067505 Ry
     estimated scf accuracy    <          9.6E-09 Ry
     smearing contrib. (-TS)   =      -0.00020328 Ry
     internal energy E=F+TS    =    -377.16047177 Ry

     The total energy is F=E-TS. E is the sum of the following terms:
     one-electron contribution =     -94.60250739 Ry
     hartree contribution      =      77.30553659 Ry
     xc contribution           =     -85.12911916 Ry
     ewald contribution        =    -274.73438182 Ry

     convergence has been achieved in  15 iterations

     Writing all to output data dir ./Bi2Pd/Bi2Pd.save/
 
     init_run     :      2.30s CPU      2.49s WALL (       1 calls)
     electrons    :    111.07s CPU    116.07s WALL (       1 calls)

     Called by init_run:
     wfcinit      :      1.79s CPU      1.88s WALL (       1 calls)
     wfcinit:atom :      0.00s CPU      0.00s WALL (      13 calls)
     wfcinit:wfcr :      1.76s CPU      1.85s WALL (      13 calls)
     potinit      :      0.01s CPU      0.04s WALL (       1 calls)
     hinit0       :      0.20s CPU      0.21s WALL (       1 calls)

     Called by electrons:
     c_bands      :     74.05s CPU     75.68s WALL (      16 calls)
     sum_band     :     32.04s CPU     34.21s WALL (      16 calls)
     v_of_rho     :      0.15s CPU      0.18s WALL (      16 calls)
     v_h          :      0.07s CPU      0.07s WALL (      16 calls)
     v_xc         :      0.09s CPU      0.10s WALL (      16 calls)
     newd         :      4.52s CPU      5.73s WALL (      16 calls)
     mix_rho      :      0.27s CPU      0.30s WALL (      16 calls)

     Called by c_bands:
     init_us_2    :      0.14s CPU      0.15s WALL (     429 calls)
     init_us_2:cp :      0.14s CPU      0.15s WALL (     429 calls)
     cegterg      :     71.37s CPU     72.96s WALL (     208 calls)

     Called by sum_band:
     sum_band:wei :      0.00s CPU      0.01s WALL (      16 calls)
     sum_band:loo :     26.73s CPU     27.04s WALL (      16 calls)
     sum_band:buf :      0.06s CPU      0.07s WALL (     208 calls)
     sum_band:ini :      0.07s CPU      0.07s WALL (     208 calls)
     sum_band:cal :      0.36s CPU      0.36s WALL (     208 calls)
     sum_band:bec :      0.29s CPU      0.29s WALL (     208 calls)
     addusdens    :      5.08s CPU      6.89s WALL (      16 calls)
                                        0.00s GPU  (      16 calls)
     addusd:skk   :      0.00s CPU      0.00s WALL (      32 calls)
                                        0.00s GPU  (      32 calls)

     Called by *egterg:
     cdiaghg      :      0.79s CPU      0.80s WALL (     695 calls)
     cegterg:over :      1.01s CPU      1.02s WALL (     500 calls)
     cegterg:upda :      0.49s CPU      0.50s WALL (     500 calls)
     cegterg:last :      1.07s CPU      1.08s WALL (     395 calls)
     h_psi        :     68.10s CPU     69.69s WALL (     721 calls)
     s_psi        :      0.90s CPU      0.92s WALL (     721 calls)
     g_psi        :      0.05s CPU      0.05s WALL (     500 calls)

     Called by h_psi:
     h_psi:calbec :      0.87s CPU      0.89s WALL (     721 calls)
     vloc_psi     :     66.12s CPU     67.68s WALL (     721 calls)
     add_vuspsi   :      0.98s CPU      1.00s WALL (     721 calls)

     General routines
     calbec       :      1.23s CPU      1.25s WALL (     929 calls)
     fft          :      0.41s CPU      0.46s WALL (     278 calls)
     ffts         :      0.06s CPU      0.06s WALL (     128 calls)
     fftw         :     38.46s CPU     39.30s WALL (  118472 calls)
     interpolate  :      0.19s CPU      0.20s WALL (      64 calls)
 
     Parallel routines
 
     PWSCF        :   1m53.56s CPU   1m58.79s WALL

 
   This run was terminated on:  11:38:38   8Jan2024            

=------------------------------------------------------------------------------=
   JOB DONE.
=------------------------------------------------------------------------------=
