
     Program PWSCF v.7.2 starts on  6Jan2024 at 11:39:27 

     This program is part of the open-source Quantum ESPRESSO suite
     for quantum simulation of materials; please cite
         "P. Giannozzi et al., J. Phys.:Condens. Matter 21 395502 (2009);
         "P. Giannozzi et al., J. Phys.:Condens. Matter 29 465901 (2017);
         "P. Giannozzi et al., J. Chem. Phys. 152 154105 (2020);
          URL http://www.quantum-espresso.org", 
     in publications or presentations arising from this work. More details at
     http://www.quantum-espresso.org/quote

     Parallel version (MPI), running on     4 processors

     MPI processes distributed on     1 nodes
     12596 MiB available memory on the printing compute node when the environment starts
 
     Waiting for input...
     Reading input from standard input

     Current dimensions of program PWSCF are:
     Max number of different atomic species (ntypx) = 10
     Max number of k-points (npk) =  40000
     Max angular momentum in pseudopotentials (lmaxx) =  4
     file Bi.rel-pz-dn-rrkjus_psl.1.0.0.UPF: wavefunction(s)  5D 5D renormalized
     file Pd.rel-pz-n-rrkjus_psl.1.0.0.UPF: wavefunction(s)  4D 4D renormalized
     Found identity + (  0.5000  0.5000 -0.5000) symmetry
     This is a supercell, fractional translations are disabled
 
     R & G space division:  proc/nbgrp/npool/nimage =       4
     Subspace diagonalization in iterative solution of the eigenvalue problem:
     a serial algorithm will be used

 
     Parallelization info
     --------------------
     sticks:   dense  smooth     PW     G-vecs:    dense   smooth      PW
     Min         311     138     43                 6970     2061     369
     Max         312     139     44                 6972     2063     372
     Sum        1247     553    173                27883     8247    1481
 
     Using Slab Decomposition
 


     bravais-lattice index     =            3
     lattice parameter (alat)  =       6.3999  a.u.
     unit-cell volume          =     131.0657 (a.u.)^3
     number of atoms/cell      =            6
     number of atomic types    =            2
     number of electrons       =        80.00
     number of Kohn-Sham states=           96
     kinetic-energy cutoff     =      60.0000  Ry
     charge density cutoff     =     540.0000  Ry
     scf convergence threshold =      1.0E-08
     mixing beta               =       0.1000
     number of iterations used =            8  plain     mixing
     energy convergence thresh.=      1.0E-04
     force convergence thresh. =      1.0E-03
     press convergence thresh. =      5.0E-01
     Exchange-correlation= LDA
                           (   1   1   0   0   0   0   0)
     nstep                     =           50

     Non magnetic calculation with spin-orbit


     celldm(1)=   6.399898  celldm(2)=   0.000000  celldm(3)=   3.911483
     celldm(4)=   0.000000  celldm(5)=   0.000000  celldm(6)=   0.000000

     crystal axes: (cart. coord. in units of alat)
               a(1) = (   0.500000   0.500000   0.500000 )  
               a(2) = (  -0.500000   0.500000   0.500000 )  
               a(3) = (  -0.500000  -0.500000   0.500000 )  

     reciprocal axes: (cart. coord. in units 2 pi/alat)
               b(1) = (  1.000000  0.000000  1.000000 )  
               b(2) = ( -1.000000  1.000000  0.000000 )  
               b(3) = (  0.000000 -1.000000  1.000000 )  


     PseudoPot. # 1 for Bi read from file:
     ~/q-e/pseudo/pslibrary/rel-pz/PSEUDOPOTENTIALS/Bi.rel-pz-dn-rrkjus_psl.1.0.0.UPF
     MD5 check sum: Not computed, couldn't open file
     Pseudo is Ultrasoft + core correction, Zval = 15.0
     Generated using 'atomic' code by A. Dal Corso  v.7.2
     Using radial grid of 1283 points, 10 beta functions with: 
                l(1) =   0
                l(2) =   0
                l(3) =   1
                l(4) =   1
                l(5) =   1
                l(6) =   1
                l(7) =   2
                l(8) =   2
                l(9) =   2
               l(10) =   2
     Q(r) pseudized with 0 coefficients 


     PseudoPot. # 2 for Pd read from file:
     ~/q-e/pseudo/pslibrary/rel-pz/PSEUDOPOTENTIALS/Pd.rel-pz-n-rrkjus_psl.1.0.0.UPF
     MD5 check sum: Not computed, couldn't open file
     Pseudo is Ultrasoft + core correction, Zval = 10.0
     Generated using 'atomic' code by A. Dal Corso  v.7.2
     Using radial grid of 1235 points, 10 beta functions with: 
                l(1) =   0
                l(2) =   0
                l(3) =   1
                l(4) =   1
                l(5) =   1
                l(6) =   1
                l(7) =   2
                l(8) =   2
                l(9) =   2
               l(10) =   2
     Q(r) pseudized with 0 coefficients 


     atomic species   valence    mass     pseudopotential
     Bi               15.00   208.98000     Bi( 1.00)
     Pd               10.00   106.42000     Pd( 1.00)

      4 Sym. Ops., with inversion, found


                                    s                        frac. trans.

      isym =  1     identity                                     

 cryst.   s( 1) = (     1          0          0      )
                  (     0          1          0      )
                  (     0          0          1      )

 cart.    s( 1) = (  1.0000000  0.0000000  0.0000000 )
                  (  0.0000000  1.0000000  0.0000000 )
                  (  0.0000000  0.0000000  1.0000000 )


      isym =  2     180 deg rotation - cart. axis [0,1,1]        

 cryst.   s( 2) = (     0          1          0      )
                  (     1          0          0      )
                  (     0          0         -1      )

 cart.    s( 2) = ( -1.0000000  0.0000000  0.0000000 )
                  (  0.0000000  0.0000000  1.0000000 )
                  (  0.0000000  1.0000000  0.0000000 )


      isym =  3     inversion                                    

 cryst.   s( 3) = (    -1          0          0      )
                  (     0         -1          0      )
                  (     0          0         -1      )

 cart.    s( 3) = ( -1.0000000  0.0000000  0.0000000 )
                  (  0.0000000 -1.0000000  0.0000000 )
                  (  0.0000000  0.0000000 -1.0000000 )


      isym =  4     inv. 180 deg rotation - cart. axis [0,1,1]   

 cryst.   s( 4) = (     0         -1          0      )
                  (    -1          0          0      )
                  (     0          0          1      )

 cart.    s( 4) = (  1.0000000  0.0000000  0.0000000 )
                  (  0.0000000  0.0000000 -1.0000000 )
                  (  0.0000000 -1.0000000  0.0000000 )


     double point group C_2h (2/m) 
     there are  8 classes and  4 irreducible representations
     the character table:

       E     -E    C2    -C2   i     -i    s_h   -s_h 
                                                      
G_3+   1.00 -1.00  0.00  0.00  1.00 -1.00  0.00  0.00
G_4+   1.00 -1.00  0.00  0.00  1.00 -1.00  0.00  0.00
G_3-   1.00 -1.00  0.00  0.00 -1.00  1.00  0.00  0.00
G_4-   1.00 -1.00  0.00  0.00 -1.00  1.00  0.00  0.00

     imaginary part

       E     -E    C2    -C2   i     -i    s_h   -s_h 
                                                      
G_3+   0.00  0.00  1.00 -1.00  0.00  0.00  1.00 -1.00
G_4+   0.00  0.00 -1.00  1.00  0.00  0.00 -1.00  1.00
G_3-   0.00  0.00  1.00 -1.00  0.00  0.00 -1.00  1.00
G_4-   0.00  0.00 -1.00  1.00  0.00  0.00  1.00 -1.00

     the symmetry operations in each class and the name of the first element:

     E             1
          identity                                               
     -E           -1
          identity E                                             
     C2            2
          180 deg rotation - cart. axis [0,1,1]                  
     -C2          -2
          180 deg rotation - cart. axis [0,1,1] E                
     i             3
          inversion                                              
     -i           -3
          inversion E                                            
     s_h           4
          inv. 180 deg rotation - cart. axis [0,1,1]             
     -s_h         -4
          inv. 180 deg rotation - cart. axis [0,1,1] E           

   Cartesian axes

     site n.     atom                  positions (alat units)
         1        Bi     tau(   1) = (  -0.0661600   0.4338400   0.5661600  )
         2        Bi     tau(   2) = (  -0.4338400   0.0661600   0.9338400  )
         3        Bi     tau(   3) = (  -0.1838400  -0.1838400   0.1838400  )
         4        Bi     tau(   4) = (  -0.3161600  -0.3161600   0.3161600  )
         5        Pd     tau(   5) = (   0.0000000   0.0000000   0.0000000  )
         6        Pd     tau(   6) = (  -0.2500000   0.2500000   0.7500000  )

   Crystallographic axes

     site n.     atom                  positions (cryst. coord.)
         1        Bi     tau(   1) = (  0.5000000  0.5000000  0.1323200  )
         2        Bi     tau(   2) = (  0.5000000  0.5000000  0.8676800  )
         3        Bi     tau(   3) = (  0.0000000  0.0000000  0.3676800  )
         4        Bi     tau(   4) = (  0.0000000  0.0000000  0.6323200  )
         5        Pd     tau(   5) = (  0.0000000  0.0000000  0.0000000  )
         6        Pd     tau(   6) = (  0.5000000  0.5000000  0.5000000  )

     number of k points=    24  Methfessel-Paxton smearing, width (Ry)=  0.0100
                       cart. coord. in units 2pi/alat
        k(    1) = (   0.0000000   0.0000000   0.0000000), wk =   0.0156250
        k(    2) = (   0.0000000  -0.2500000   0.2500000), wk =   0.0312500
        k(    3) = (   0.0000000   0.5000000  -0.5000000), wk =   0.0156250
        k(    4) = (  -0.2500000   0.7500000  -0.5000000), wk =   0.0625000
        k(    5) = (   0.0000000   0.0000000   0.5000000), wk =   0.0625000
        k(    6) = (   0.0000000   0.7500000  -0.2500000), wk =   0.0312500
        k(    7) = (   0.5000000  -0.5000000   0.5000000), wk =   0.0312500
        k(    8) = (   0.0000000   0.0000000  -1.0000000), wk =   0.0156250
        k(    9) = (  -0.2500000   0.0000000  -0.2500000), wk =   0.0625000
        k(   10) = (   0.2500000   0.0000000  -0.2500000), wk =   0.0625000
        k(   11) = (   0.0000000   0.2500000   0.2500000), wk =   0.0312500
        k(   12) = (   0.5000000   0.0000000   0.5000000), wk =   0.0312500
        k(   13) = (  -0.5000000   0.0000000   0.5000000), wk =   0.0312500
        k(   14) = (   0.0000000  -0.5000000  -0.5000000), wk =   0.0156250
        k(   15) = (   0.7500000  -0.2500000   0.5000000), wk =   0.0625000
        k(   16) = (   0.7500000   0.2500000  -0.5000000), wk =   0.0625000
        k(   17) = (  -0.7500000  -0.2500000  -0.5000000), wk =   0.0625000
        k(   18) = (  -0.5000000  -0.7500000  -0.2500000), wk =   0.0312500
        k(   19) = (   0.5000000  -0.7500000   0.2500000), wk =   0.0625000
        k(   20) = (  -0.5000000   0.7500000   0.2500000), wk =   0.0312500
        k(   21) = (   0.5000000   0.0000000   0.0000000), wk =   0.0312500
        k(   22) = (   0.7500000   0.0000000   0.2500000), wk =   0.0625000
        k(   23) = (  -0.7500000   0.0000000   0.2500000), wk =   0.0625000
        k(   24) = (   0.0000000  -0.7500000  -0.2500000), wk =   0.0312500

                       cryst. coord.
        k(    1) = (   0.0000000   0.0000000   0.0000000), wk =   0.0156250
        k(    2) = (   0.0000000   0.0000000   0.2500000), wk =   0.0312500
        k(    3) = (   0.0000000   0.0000000  -0.5000000), wk =   0.0156250
        k(    4) = (   0.0000000   0.2500000  -0.5000000), wk =   0.0625000
        k(    5) = (   0.2500000   0.2500000   0.2500000), wk =   0.0625000
        k(    6) = (   0.2500000   0.2500000  -0.5000000), wk =   0.0312500
        k(    7) = (   0.2500000  -0.2500000   0.2500000), wk =   0.0312500
        k(    8) = (  -0.5000000  -0.5000000  -0.5000000), wk =   0.0156250
        k(    9) = (  -0.2500000   0.0000000   0.0000000), wk =   0.0625000
        k(   10) = (   0.0000000  -0.2500000  -0.2500000), wk =   0.0625000
        k(   11) = (   0.2500000   0.2500000   0.0000000), wk =   0.0312500
        k(   12) = (   0.5000000   0.0000000   0.0000000), wk =   0.0312500
        k(   13) = (   0.0000000   0.5000000   0.5000000), wk =   0.0312500
        k(   14) = (  -0.5000000  -0.5000000   0.0000000), wk =   0.0156250
        k(   15) = (   0.5000000  -0.2500000   0.0000000), wk =   0.0625000
        k(   16) = (   0.2500000  -0.5000000  -0.7500000), wk =   0.0625000
        k(   17) = (  -0.7500000   0.0000000   0.2500000), wk =   0.0625000
        k(   18) = (  -0.7500000  -0.2500000   0.5000000), wk =   0.0312500
        k(   19) = (   0.0000000  -0.5000000   0.2500000), wk =   0.0625000
        k(   20) = (   0.2500000   0.7500000   0.0000000), wk =   0.0312500
        k(   21) = (   0.2500000  -0.2500000  -0.2500000), wk =   0.0312500
        k(   22) = (   0.5000000  -0.2500000  -0.2500000), wk =   0.0625000
        k(   23) = (  -0.2500000   0.5000000   0.5000000), wk =   0.0625000
        k(   24) = (  -0.5000000  -0.5000000   0.2500000), wk =   0.0312500

     Dense  grid:    27883 G-vectors     FFT dimensions: (  45,  45,  45)

     Smooth grid:     8247 G-vectors     FFT dimensions: (  27,  27,  27)

     Dynamical RAM for                 wfc:       0.75 MB

     Dynamical RAM for     wfc (w. buffer):      18.82 MB

     Dynamical RAM for           str. fact:       0.21 MB

     Dynamical RAM for           local pot:       0.00 MB

     Dynamical RAM for          nlocal pot:       0.80 MB

     Dynamical RAM for                qrad:      19.53 MB

     Dynamical RAM for          rho,v,vnew:       3.50 MB

     Dynamical RAM for               rhoin:       1.17 MB

     Dynamical RAM for            rho*nmix:       6.81 MB

     Dynamical RAM for           G-vectors:       0.41 MB

     Dynamical RAM for          h,s,v(r/c):       1.69 MB

     Dynamical RAM for          <psi|beta>:       0.60 MB

     Dynamical RAM for                 psi:       1.51 MB

     Dynamical RAM for                hpsi:       1.51 MB

     Dynamical RAM for                spsi:       1.51 MB

     Dynamical RAM for      wfcinit/wfcrot:       1.54 MB

     Dynamical RAM for           addusdens:      65.30 MB

     Dynamical RAM for          addusforce:      66.05 MB

     Dynamical RAM for         addusstress:      66.79 MB

     Estimated static dynamical RAM per process >      46.25 MB

     Estimated max dynamical RAM per process >     119.85 MB

     Estimated total dynamical RAM >     479.40 MB

     Initial potential from superposition of free atoms

     starting charge      79.9965, renormalised to      80.0000
     Starting wfcs are  108 randomized atomic wfcs

     total cpu time spent up to now is        1.3 secs

     Self-consistent Calculation

     iteration #  1     ecut=    60.00 Ry     beta= 0.10
     Davidson diagonalization with overlap

---- Real-time Memory Report at c_bands before calling an iterative solver
           193 MiB given to the printing process from OS
             0 MiB allocation reported by mallinfo(arena+hblkhd)
         12275 MiB available memory on the node where the printing process lives
------------------
     ethr =  1.00E-02,  avg # of iterations =  9.7

     negative rho (up, down):  7.762E-05 0.000E+00

     total cpu time spent up to now is        6.2 secs

     total energy              =    -491.63395265 Ry
     estimated scf accuracy    <      67.26087542 Ry

     iteration #  2     ecut=    60.00 Ry     beta= 0.10
     Davidson diagonalization with overlap

---- Real-time Memory Report at c_bands before calling an iterative solver
           244 MiB given to the printing process from OS
             0 MiB allocation reported by mallinfo(arena+hblkhd)
         12245 MiB available memory on the node where the printing process lives
------------------
     ethr =  1.00E-02,  avg # of iterations =  2.8

     negative rho (up, down):  2.480E-03 0.000E+00

     total cpu time spent up to now is        8.7 secs

     total energy              =    -495.43533906 Ry
     estimated scf accuracy    <       2.82957818 Ry

     iteration #  3     ecut=    60.00 Ry     beta= 0.10
     Davidson diagonalization with overlap

---- Real-time Memory Report at c_bands before calling an iterative solver
           248 MiB given to the printing process from OS
             0 MiB allocation reported by mallinfo(arena+hblkhd)
         12224 MiB available memory on the node where the printing process lives
------------------
     ethr =  3.54E-03,  avg # of iterations =  2.0

     negative rho (up, down):  5.249E-03 0.000E+00

     total cpu time spent up to now is       10.7 secs

     total energy              =    -494.76062098 Ry
     estimated scf accuracy    <       1.52653410 Ry

     iteration #  4     ecut=    60.00 Ry     beta= 0.10
     Davidson diagonalization with overlap

---- Real-time Memory Report at c_bands before calling an iterative solver
           249 MiB given to the printing process from OS
             0 MiB allocation reported by mallinfo(arena+hblkhd)
         12222 MiB available memory on the node where the printing process lives
------------------
     ethr =  1.91E-03,  avg # of iterations =  2.5

     negative rho (up, down):  2.206E-02 0.000E+00

     total cpu time spent up to now is       12.8 secs

     total energy              =    -494.80816879 Ry
     estimated scf accuracy    <       0.26050029 Ry

     iteration #  5     ecut=    60.00 Ry     beta= 0.10
     Davidson diagonalization with overlap

---- Real-time Memory Report at c_bands before calling an iterative solver
           249 MiB given to the printing process from OS
             0 MiB allocation reported by mallinfo(arena+hblkhd)
         12223 MiB available memory on the node where the printing process lives
------------------
     ethr =  3.26E-04,  avg # of iterations =  7.1

     negative rho (up, down):  4.205E-02 0.000E+00

     total cpu time spent up to now is       15.5 secs

     total energy              =    -494.76467280 Ry
     estimated scf accuracy    <       0.11377944 Ry

     iteration #  6     ecut=    60.00 Ry     beta= 0.10
     Davidson diagonalization with overlap

---- Real-time Memory Report at c_bands before calling an iterative solver
           249 MiB given to the printing process from OS
             0 MiB allocation reported by mallinfo(arena+hblkhd)
         12220 MiB available memory on the node where the printing process lives
------------------
     ethr =  1.42E-04,  avg # of iterations =  2.9

     negative rho (up, down):  4.843E-02 0.000E+00

     total cpu time spent up to now is       17.9 secs

     total energy              =    -494.78284082 Ry
     estimated scf accuracy    <       0.02050705 Ry

     iteration #  7     ecut=    60.00 Ry     beta= 0.10
     Davidson diagonalization with overlap

---- Real-time Memory Report at c_bands before calling an iterative solver
           250 MiB given to the printing process from OS
             0 MiB allocation reported by mallinfo(arena+hblkhd)
         12219 MiB available memory on the node where the printing process lives
------------------
     ethr =  2.56E-05,  avg # of iterations =  4.9

     negative rho (up, down):  4.935E-02 0.000E+00

     total cpu time spent up to now is       20.5 secs

     total energy              =    -494.78445277 Ry
     estimated scf accuracy    <       0.00548568 Ry

     iteration #  8     ecut=    60.00 Ry     beta= 0.10
     Davidson diagonalization with overlap

---- Real-time Memory Report at c_bands before calling an iterative solver
           250 MiB given to the printing process from OS
             0 MiB allocation reported by mallinfo(arena+hblkhd)
         12218 MiB available memory on the node where the printing process lives
------------------
     ethr =  6.86E-06,  avg # of iterations =  6.0

     negative rho (up, down):  5.073E-02 0.000E+00

     total cpu time spent up to now is       23.3 secs

     total energy              =    -494.78386792 Ry
     estimated scf accuracy    <       0.00376119 Ry

     iteration #  9     ecut=    60.00 Ry     beta= 0.10
     Davidson diagonalization with overlap

---- Real-time Memory Report at c_bands before calling an iterative solver
           250 MiB given to the printing process from OS
             0 MiB allocation reported by mallinfo(arena+hblkhd)
         12218 MiB available memory on the node where the printing process lives
------------------
     ethr =  4.70E-06,  avg # of iterations =  2.5

     negative rho (up, down):  5.109E-02 0.000E+00

     total cpu time spent up to now is       26.0 secs

     total energy              =    -494.78407476 Ry
     estimated scf accuracy    <       0.00182064 Ry

     iteration # 10     ecut=    60.00 Ry     beta= 0.10
     Davidson diagonalization with overlap

---- Real-time Memory Report at c_bands before calling an iterative solver
           250 MiB given to the printing process from OS
             0 MiB allocation reported by mallinfo(arena+hblkhd)
         12218 MiB available memory on the node where the printing process lives
------------------
     ethr =  2.28E-06,  avg # of iterations =  2.9

     negative rho (up, down):  5.175E-02 0.000E+00

     total cpu time spent up to now is       29.0 secs

     total energy              =    -494.78431960 Ry
     estimated scf accuracy    <       0.00106047 Ry

     iteration # 11     ecut=    60.00 Ry     beta= 0.10
     Davidson diagonalization with overlap

---- Real-time Memory Report at c_bands before calling an iterative solver
           251 MiB given to the printing process from OS
             0 MiB allocation reported by mallinfo(arena+hblkhd)
         12219 MiB available memory on the node where the printing process lives
------------------
     ethr =  1.33E-06,  avg # of iterations =  2.0

     negative rho (up, down):  5.170E-02 0.000E+00

     total cpu time spent up to now is       31.4 secs

     total energy              =    -494.78439444 Ry
     estimated scf accuracy    <       0.00028664 Ry

     iteration # 12     ecut=    60.00 Ry     beta= 0.10
     Davidson diagonalization with overlap

---- Real-time Memory Report at c_bands before calling an iterative solver
           251 MiB given to the printing process from OS
             0 MiB allocation reported by mallinfo(arena+hblkhd)
         12219 MiB available memory on the node where the printing process lives
------------------
     ethr =  3.58E-07,  avg # of iterations =  2.0

     negative rho (up, down):  5.183E-02 0.000E+00

     total cpu time spent up to now is       33.9 secs

     total energy              =    -494.78440757 Ry
     estimated scf accuracy    <       0.00002873 Ry

     iteration # 13     ecut=    60.00 Ry     beta= 0.10
     Davidson diagonalization with overlap

---- Real-time Memory Report at c_bands before calling an iterative solver
           251 MiB given to the printing process from OS
             0 MiB allocation reported by mallinfo(arena+hblkhd)
         12219 MiB available memory on the node where the printing process lives
------------------
     ethr =  3.59E-08,  avg # of iterations =  3.3

     negative rho (up, down):  5.182E-02 0.000E+00

     total cpu time spent up to now is       36.6 secs

     total energy              =    -494.78441093 Ry
     estimated scf accuracy    <       0.00001170 Ry

     iteration # 14     ecut=    60.00 Ry     beta= 0.10
     Davidson diagonalization with overlap

---- Real-time Memory Report at c_bands before calling an iterative solver
           251 MiB given to the printing process from OS
             0 MiB allocation reported by mallinfo(arena+hblkhd)
         12219 MiB available memory on the node where the printing process lives
------------------
     ethr =  1.46E-08,  avg # of iterations =  2.8

     negative rho (up, down):  5.183E-02 0.000E+00

     total cpu time spent up to now is       39.2 secs

     total energy              =    -494.78441134 Ry
     estimated scf accuracy    <       0.00000315 Ry

     iteration # 15     ecut=    60.00 Ry     beta= 0.10
     Davidson diagonalization with overlap

---- Real-time Memory Report at c_bands before calling an iterative solver
           251 MiB given to the printing process from OS
             0 MiB allocation reported by mallinfo(arena+hblkhd)
         12217 MiB available memory on the node where the printing process lives
------------------
     ethr =  3.94E-09,  avg # of iterations =  2.6

     negative rho (up, down):  5.185E-02 0.000E+00

     total cpu time spent up to now is       42.0 secs

     total energy              =    -494.78441197 Ry
     estimated scf accuracy    <       0.00000077 Ry

     iteration # 16     ecut=    60.00 Ry     beta= 0.10
     Davidson diagonalization with overlap

---- Real-time Memory Report at c_bands before calling an iterative solver
           251 MiB given to the printing process from OS
             0 MiB allocation reported by mallinfo(arena+hblkhd)
         12218 MiB available memory on the node where the printing process lives
------------------
     ethr =  9.68E-10,  avg # of iterations =  2.4

     negative rho (up, down):  5.186E-02 0.000E+00

     total cpu time spent up to now is       44.9 secs

     total energy              =    -494.78441217 Ry
     estimated scf accuracy    <       0.00000039 Ry

     iteration # 17     ecut=    60.00 Ry     beta= 0.10
     Davidson diagonalization with overlap

---- Real-time Memory Report at c_bands before calling an iterative solver
           251 MiB given to the printing process from OS
             0 MiB allocation reported by mallinfo(arena+hblkhd)
         12218 MiB available memory on the node where the printing process lives
------------------
     ethr =  4.82E-10,  avg # of iterations =  2.2

     negative rho (up, down):  5.186E-02 0.000E+00

     total cpu time spent up to now is       47.8 secs

     total energy              =    -494.78441250 Ry
     estimated scf accuracy    <       0.00000006 Ry

     iteration # 18     ecut=    60.00 Ry     beta= 0.10
     Davidson diagonalization with overlap

---- Real-time Memory Report at c_bands before calling an iterative solver
           251 MiB given to the printing process from OS
             0 MiB allocation reported by mallinfo(arena+hblkhd)
         12217 MiB available memory on the node where the printing process lives
------------------
     ethr =  7.42E-11,  avg # of iterations =  2.4

     negative rho (up, down):  5.186E-02 0.000E+00

     total cpu time spent up to now is       50.4 secs

     total energy              =    -494.78441258 Ry
     estimated scf accuracy    <       0.00000001 Ry

     iteration # 19     ecut=    60.00 Ry     beta= 0.10
     Davidson diagonalization with overlap

---- Real-time Memory Report at c_bands before calling an iterative solver
           251 MiB given to the printing process from OS
             0 MiB allocation reported by mallinfo(arena+hblkhd)
         12217 MiB available memory on the node where the printing process lives
------------------
     ethr =  1.38E-11,  avg # of iterations =  3.3

     negative rho (up, down):  5.187E-02 0.000E+00

     total cpu time spent up to now is       53.3 secs

     End of self-consistent calculation

          k = 0.0000 0.0000 0.0000 (  1055 PWs)   bands (ev):

    12.8546  12.8546  13.7624  13.7624  16.2305  16.2305  22.5255  22.5255
    28.4457  28.4457  29.0409  29.0409  33.9983  33.9983  39.9301  39.9301
    43.9865  43.9865  46.8419  46.8419  48.5452  48.5452  53.0427  53.0427
    53.6593  53.6593  56.2938  56.2938  56.4094  56.4094  59.9313  59.9313
    63.9671  63.9671  66.8265  66.8265  67.6654  67.6654  71.1419  71.1419
    75.8476  75.8476  76.4238  76.4238  86.0149  86.0149  86.7040  86.7040
    90.6877  90.6877  92.9713  92.9713  99.6585  99.6585 101.8769 101.8769
   101.9505 101.9505 105.4596 105.4596 106.0599 106.0599 106.9957 106.9957
   108.8078 108.8078 110.2408 110.2408 112.1795 112.1795 114.8858 114.8858
   116.2929 116.2929 121.9128 121.9128 123.2858 123.2858 123.6679 123.6679
   124.3885 124.3885 124.8843 124.8843 127.8386 127.8386 129.6324 129.6324
   129.7794 129.7794 130.3316 130.3316 132.1033 132.1033 133.7536 133.7537

     occupation numbers 
     1.0000   1.0000   1.0000   1.0000   1.0000   1.0000   1.0000   1.0000
     1.0000   1.0000   1.0000   1.0000   1.0000   1.0000   1.0000   1.0000
     1.0000   1.0000   1.0000   1.0000   1.0000   1.0000   1.0000   1.0000
     1.0000   1.0000   1.0000   1.0000   1.0000   1.0000   1.0000   1.0000
     1.0000   1.0000   1.0000   1.0000   1.0000   1.0000   1.0000   1.0000
     1.0000   1.0000   1.0000   1.0000   1.0000   1.0000   1.0000   1.0000
     1.0000   1.0000   1.0000   1.0000   1.0000   1.0000   1.0000   1.0000
     1.0000   1.0000   1.0000   1.0000   1.0000   1.0000   1.0000   1.0000
     1.0000   1.0000   1.0000   1.0000   1.0000   1.0000   1.0000   1.0000
     1.0000   1.0000  -0.0000  -0.0000  -0.0000  -0.0000  -0.0000  -0.0000
    -0.0000  -0.0000  -0.0000  -0.0000  -0.0000  -0.0000  -0.0000  -0.0000
    -0.0000  -0.0000  -0.0000  -0.0000  -0.0000  -0.0000  -0.0000  -0.0000

          k = 0.0000-0.2500 0.2500 (  1025 PWs)   bands (ev):

    11.6237  11.6237  17.1332  17.1332  18.3194  18.3194  18.9089  18.9089
    24.3944  24.3944  24.4737  24.4737  35.7516  35.7516  36.1229  36.1229
    46.9764  46.9764  49.7504  49.7504  52.9021  52.9021  53.6422  53.6422
    56.0359  56.0359  59.3361  59.3361  63.9284  63.9284  66.0607  66.0607
    66.4262  66.4262  67.8781  67.8781  70.3457  70.3457  70.3598  70.3598
    72.1211  72.1211  76.3533  76.3533  84.7842  84.7842  87.1336  87.1336
    91.8824  91.8824  94.9771  94.9771  96.7940  96.7940 100.3125 100.3125
   101.2136 101.2136 101.5010 101.5010 102.3835 102.3835 104.0528 104.0528
   107.5094 107.5094 110.4374 110.4374 112.7784 112.7784 113.3313 113.3313
   116.3694 116.3694 117.0381 117.0381 120.0365 120.0365 121.3819 121.3819
   123.4075 123.4075 124.7652 124.7652 125.3516 125.3516 125.5294 125.5294
   126.8296 126.8296 127.5679 127.5679 127.8957 127.8957 128.6168 128.6168

     occupation numbers 
     1.0000   1.0000   1.0000   1.0000   1.0000   1.0000   1.0000   1.0000
     1.0000   1.0000   1.0000   1.0000   1.0000   1.0000   1.0000   1.0000
     1.0000   1.0000   1.0000   1.0000   1.0000   1.0000   1.0000   1.0000
     1.0000   1.0000   1.0000   1.0000   1.0000   1.0000   1.0000   1.0000
     1.0000   1.0000   1.0000   1.0000   1.0000   1.0000   1.0000   1.0000
     1.0000   1.0000   1.0000   1.0000   1.0000   1.0000   1.0000   1.0000
     1.0000   1.0000   1.0000   1.0000   1.0000   1.0000   1.0000   1.0000
     1.0000   1.0000   1.0000   1.0000   1.0000   1.0000   1.0000   1.0000
     1.0000   1.0000   1.0000   1.0000   1.0000   1.0000   1.0000   1.0000
     1.0000   1.0000   1.0000   1.0000   1.0000   1.0000   0.4662   0.4662
    -0.0000  -0.0000  -0.0000  -0.0000  -0.0000  -0.0000  -0.0000  -0.0000
    -0.0000  -0.0000  -0.0000  -0.0000  -0.0000  -0.0000  -0.0000  -0.0000

          k = 0.0000 0.5000-0.5000 (  1024 PWs)   bands (ev):

    12.3805  12.3805  12.3805  12.3805  21.2694  21.2694  21.2694  21.2694
    26.2030  26.2030  26.2030  26.2030  28.2320  28.2320  28.2320  28.2320
    52.5646  52.5646  52.5646  52.5646  57.7290  57.7290  57.7290  57.7290
    58.9616  58.9616  58.9616  58.9616  63.2208  63.2208  63.2208  63.2208
    74.1516  74.1516  74.1516  74.1516  75.9623  75.9623  75.9623  75.9623
    80.9817  80.9817  80.9817  80.9817  84.3059  84.3059  84.3059  84.3059
    87.8753  87.8753  87.8753  87.8753  94.8873  94.8873  94.8873  94.8873
    95.7011  95.7011  95.7011  95.7011 101.3852 101.3852 101.3852 101.3852
   102.3167 102.3167 102.3167 102.3167 113.8518 113.8518 113.8518 113.8518
   116.7556 116.7556 116.7556 116.7556 119.0314 119.0314 119.0314 119.0314
   122.5932 122.5932 122.5932 122.5932 123.8586 123.8586 123.8586 123.8586
   125.3844 125.3844 125.3844 125.3844 126.5457 126.5457 126.5457 126.5457

     occupation numbers 
     1.0000   1.0000   1.0000   1.0000   1.0000   1.0000   1.0000   1.0000
     1.0000   1.0000   1.0000   1.0000   1.0000   1.0000   1.0000   1.0000
     1.0000   1.0000   1.0000   1.0000   1.0000   1.0000   1.0000   1.0000
     1.0000   1.0000   1.0000   1.0000   1.0000   1.0000   1.0000   1.0000
     1.0000   1.0000   1.0000   1.0000   1.0000   1.0000   1.0000   1.0000
     1.0000   1.0000   1.0000   1.0000   1.0000   1.0000   1.0000   1.0000
     1.0000   1.0000   1.0000   1.0000   1.0000   1.0000   1.0000   1.0000
     1.0000   1.0000   1.0000   1.0000   1.0000   1.0000   1.0000   1.0000
     1.0000   1.0000   1.0000   1.0000   1.0000   1.0000   1.0000   1.0000
     1.0000   1.0000   1.0000   1.0000   1.0000   1.0000   1.0000   1.0000
    -0.0000  -0.0000  -0.0000  -0.0000  -0.0000  -0.0000  -0.0000  -0.0000
    -0.0000  -0.0000  -0.0000  -0.0000  -0.0000  -0.0000  -0.0000  -0.0000

          k =-0.2500 0.7500-0.5000 (  1029 PWs)   bands (ev):

     9.5901   9.5901  12.1018  12.1018  18.8086  18.8086  19.3992  19.3992
    21.3159  21.3159  21.5763  21.5763  35.9816  35.9816  38.9882  38.9882
    51.0491  51.0491  51.9454  51.9454  54.2198  54.2198  54.9230  54.9230
    58.9866  58.9866  59.2198  59.2198  64.0098  64.0098  68.2005  68.2005
    74.7046  74.7046  75.8451  75.8451  77.4195  77.4195  78.5735  78.5735
    79.4758  79.4758  82.4347  82.4347  83.2050  83.2050  86.8695  86.8695
    87.6893  87.6893  89.5496  89.5496  89.8727  89.8727  95.1407  95.1407
    95.2700  95.2700  98.9542  98.9542 100.4187 100.4187 100.9517 100.9517
   104.4853 104.4853 106.4525 106.4525 108.5744 108.5744 112.0799 112.0799
   113.8799 113.8799 115.9143 115.9143 116.0828 116.0828 118.0339 118.0339
   119.3128 119.3128 121.7201 121.7201 123.0892 123.0892 124.4342 124.4342
   124.9917 124.9917 126.3509 126.3510 126.8722 126.8722 127.4180 127.4181

     occupation numbers 
     1.0000   1.0000   1.0000   1.0000   1.0000   1.0000   1.0000   1.0000
     1.0000   1.0000   1.0000   1.0000   1.0000   1.0000   1.0000   1.0000
     1.0000   1.0000   1.0000   1.0000   1.0000   1.0000   1.0000   1.0000
     1.0000   1.0000   1.0000   1.0000   1.0000   1.0000   1.0000   1.0000
     1.0000   1.0000   1.0000   1.0000   1.0000   1.0000   1.0000   1.0000
     1.0000   1.0000   1.0000   1.0000   1.0000   1.0000   1.0000   1.0000
     1.0000   1.0000   1.0000   1.0000   1.0000   1.0000   1.0000   1.0000
     1.0000   1.0000   1.0000   1.0000   1.0000   1.0000   1.0000   1.0000
     1.0000   1.0000   1.0000   1.0000   1.0000   1.0000   1.0000   1.0000
     1.0000   1.0000   1.0000   1.0000   1.0000   1.0000   1.0000   1.0000
     1.0000   1.0000  -0.0010  -0.0010  -0.0000  -0.0000  -0.0000  -0.0000
    -0.0000  -0.0000  -0.0000  -0.0000  -0.0000  -0.0000  -0.0000  -0.0000

          k = 0.0000 0.0000 0.5000 (  1020 PWs)   bands (ev):

    11.6378  11.6378  17.1335  17.1335  18.4627  18.4627  18.9968  18.9968
    24.4042  24.4042  24.4977  24.4977  35.8130  35.8130  36.1848  36.1848
    47.0875  47.0875  49.4769  49.4769  53.2506  53.2506  53.6027  53.6027
    55.8913  55.8913  59.3429  59.3429  63.6990  63.6990  65.7157  65.7157
    66.5316  66.5316  67.9355  67.9355  70.0797  70.0797  70.4786  70.4786
    72.2386  72.2386  76.3924  76.3924  84.7499  84.7499  86.9552  86.9552
    90.7067  90.7067  93.6268  93.6268  96.9136  96.9136 100.3537 100.3537
   100.9405 100.9405 103.1080 103.1080 103.4305 103.4305 104.0697 104.0697
   106.5725 106.5725 111.4111 111.4111 113.9933 113.9933 115.1834 115.1834
   115.9721 115.9721 119.0420 119.0420 120.4521 120.4521 121.6738 121.6738
   122.2669 122.2669 123.4653 123.4653 123.7286 123.7286 125.0155 125.0155
   126.9465 126.9465 127.0971 127.0971 128.5885 128.5885 129.2813 129.2813

     occupation numbers 
     1.0000   1.0000   1.0000   1.0000   1.0000   1.0000   1.0000   1.0000
     1.0000   1.0000   1.0000   1.0000   1.0000   1.0000   1.0000   1.0000
     1.0000   1.0000   1.0000   1.0000   1.0000   1.0000   1.0000   1.0000
     1.0000   1.0000   1.0000   1.0000   1.0000   1.0000   1.0000   1.0000
     1.0000   1.0000   1.0000   1.0000   1.0000   1.0000   1.0000   1.0000
     1.0000   1.0000   1.0000   1.0000   1.0000   1.0000   1.0000   1.0000
     1.0000   1.0000   1.0000   1.0000   1.0000   1.0000   1.0000   1.0000
     1.0000   1.0000   1.0000   1.0000   1.0000   1.0000   1.0000   1.0000
     1.0000   1.0000   1.0000   1.0000   1.0000   1.0000   1.0000   1.0000
     1.0000   1.0000   1.0000   1.0000   1.0000   1.0000  -0.0042  -0.0042
    -0.0000  -0.0000  -0.0000  -0.0000  -0.0000  -0.0000  -0.0000  -0.0000
    -0.0000  -0.0000  -0.0000  -0.0000  -0.0000  -0.0000  -0.0000  -0.0000

          k = 0.0000 0.7500-0.2500 (  1038 PWs)   bands (ev):

    12.3846  12.3846  12.3846  12.3846  21.2889  21.2889  21.2889  21.2889
    26.2849  26.2849  26.2849  26.2849  28.3985  28.3985  28.3985  28.3985
    52.5021  52.5021  52.5021  52.5021  57.5530  57.5530  57.5530  57.5530
    58.8975  58.8975  58.8975  58.8975  63.2337  63.2337  63.2337  63.2337
    74.0833  74.0833  74.0833  74.0833  76.0073  76.0073  76.0073  76.0073
    81.0362  81.0362  81.0362  81.0362  84.7586  84.7586  84.7586  84.7586
    87.0442  87.0442  87.0442  87.0442  93.9955  93.9955  93.9955  93.9955
    95.8158  95.8158  95.8158  95.8158 100.7967 100.7967 100.7967 100.7967
   102.9990 102.9990 102.9990 102.9990 114.5192 114.5192 114.5192 114.5192
   115.6939 115.6939 115.6939 115.6939 119.0874 119.0874 119.0874 119.0874
   121.5556 121.5556 121.5556 121.5556 125.6002 125.6002 125.6002 125.6002
   126.1756 126.1756 126.1756 126.1756 128.2190 128.2190 128.2190 128.2190

     occupation numbers 
     1.0000   1.0000   1.0000   1.0000   1.0000   1.0000   1.0000   1.0000
     1.0000   1.0000   1.0000   1.0000   1.0000   1.0000   1.0000   1.0000
     1.0000   1.0000   1.0000   1.0000   1.0000   1.0000   1.0000   1.0000
     1.0000   1.0000   1.0000   1.0000   1.0000   1.0000   1.0000   1.0000
     1.0000   1.0000   1.0000   1.0000   1.0000   1.0000   1.0000   1.0000
     1.0000   1.0000   1.0000   1.0000   1.0000   1.0000   1.0000   1.0000
     1.0000   1.0000   1.0000   1.0000   1.0000   1.0000   1.0000   1.0000
     1.0000   1.0000   1.0000   1.0000   1.0000   1.0000   1.0000   1.0000
     1.0000   1.0000   1.0000   1.0000   1.0000   1.0000   1.0000   1.0000
     1.0000   1.0000   1.0000   1.0000   1.0000   1.0000   1.0000   1.0000
    -0.0343  -0.0343  -0.0343  -0.0343  -0.0000  -0.0000  -0.0000  -0.0000
    -0.0000  -0.0000  -0.0000  -0.0000  -0.0000  -0.0000  -0.0000  -0.0000

          k = 0.5000-0.5000 0.5000 (  1004 PWs)   bands (ev):

    11.9479  11.9479  14.5519  14.5519  19.4111  19.4111  19.8183  19.8183
    23.8686  23.8686  24.4929  24.4929  36.2605  36.2605  39.1539  39.1539
    48.7260  48.7260  49.5013  49.5013  50.7075  50.7075  51.2856  51.2856
    56.5495  56.5495  59.3728  59.3728  62.5595  62.5595  65.5579  65.5579
    65.7623  65.7623  68.7251  68.7251  70.4152  70.4152  74.0511  74.0511
    78.0043  78.0043  81.8950  81.8950  81.9688  81.9688  84.4038  84.4038
    93.9591  93.9591  94.7535  94.7535  96.5678  96.5678 101.7042 101.7042
   102.7337 102.7337 104.6292 104.6292 105.1772 105.1772 106.2629 106.2629
   108.7103 108.7103 111.9756 111.9756 112.4628 112.4628 112.9205 112.9205
   113.4246 113.4246 114.5139 114.5139 116.4902 116.4902 120.0639 120.0639
   121.3610 121.3610 122.9472 122.9472 123.1206 123.1206 124.0116 124.0116
   124.1941 124.1941 126.9467 126.9467 127.7219 127.7219 128.2986 128.2986

     occupation numbers 
     1.0000   1.0000   1.0000   1.0000   1.0000   1.0000   1.0000   1.0000
     1.0000   1.0000   1.0000   1.0000   1.0000   1.0000   1.0000   1.0000
     1.0000   1.0000   1.0000   1.0000   1.0000   1.0000   1.0000   1.0000
     1.0000   1.0000   1.0000   1.0000   1.0000   1.0000   1.0000   1.0000
     1.0000   1.0000   1.0000   1.0000   1.0000   1.0000   1.0000   1.0000
     1.0000   1.0000   1.0000   1.0000   1.0000   1.0000   1.0000   1.0000
     1.0000   1.0000   1.0000   1.0000   1.0000   1.0000   1.0000   1.0000
     1.0000   1.0000   1.0000   1.0000   1.0000   1.0000   1.0000   1.0000
     1.0000   1.0000   1.0000   1.0000   1.0000   1.0000   1.0000   1.0000
     1.0000   1.0000   1.0000   1.0000   1.0000   1.0000   1.0000   1.0000
     0.5955   0.5955  -0.0000  -0.0000  -0.0000  -0.0000  -0.0000  -0.0000
    -0.0000  -0.0000  -0.0000  -0.0000  -0.0000  -0.0000  -0.0000  -0.0000

          k = 0.0000 0.0000-1.0000 (  1048 PWs)   bands (ev):

    12.3885  12.3885  12.3885  12.3885  21.3083  21.3083  21.3083  21.3083
    26.3641  26.3641  26.3641  26.3641  28.5520  28.5520  28.5520  28.5520
    52.3791  52.3791  52.3791  52.3791  57.4064  57.4064  57.4064  57.4064
    58.8295  58.8295  58.8295  58.8295  63.3573  63.3573  63.3573  63.3573
    74.0571  74.0571  74.0571  74.0571  76.0408  76.0408  76.0408  76.0408
    81.2953  81.2953  81.2953  81.2953  84.9675  84.9675  84.9675  84.9675
    86.1036  86.1036  86.1036  86.1036  93.5824  93.5824  93.5824  93.5824
    95.5892  95.5892  95.5892  95.5892 100.6318 100.6318 100.6318 100.6318
   102.2860 102.2860 102.2860 102.2860 115.8010 115.8010 115.8010 115.8010
   116.2460 116.2460 116.2460 116.2460 118.6970 118.6970 118.6970 118.6970
   121.9842 121.9842 121.9842 121.9842 127.0374 127.0374 127.0374 127.0374
   127.5492 127.5492 127.5492 127.5492 130.1034 130.1034 130.1034 130.1034

     occupation numbers 
     1.0000   1.0000   1.0000   1.0000   1.0000   1.0000   1.0000   1.0000
     1.0000   1.0000   1.0000   1.0000   1.0000   1.0000   1.0000   1.0000
     1.0000   1.0000   1.0000   1.0000   1.0000   1.0000   1.0000   1.0000
     1.0000   1.0000   1.0000   1.0000   1.0000   1.0000   1.0000   1.0000
     1.0000   1.0000   1.0000   1.0000   1.0000   1.0000   1.0000   1.0000
     1.0000   1.0000   1.0000   1.0000   1.0000   1.0000   1.0000   1.0000
     1.0000   1.0000   1.0000   1.0000   1.0000   1.0000   1.0000   1.0000
     1.0000   1.0000   1.0000   1.0000   1.0000   1.0000   1.0000   1.0000
     1.0000   1.0000   1.0000   1.0000   1.0000   1.0000   1.0000   1.0000
     1.0000   1.0000   1.0000   1.0000   1.0000   1.0000   1.0000   1.0000
    -0.0000  -0.0000  -0.0000  -0.0000  -0.0000  -0.0000  -0.0000  -0.0000
    -0.0000  -0.0000  -0.0000  -0.0000  -0.0000  -0.0000  -0.0000  -0.0000

          k =-0.2500 0.0000-0.2500 (  1025 PWs)   bands (ev):

    14.6336  14.6336  18.6476  18.6476  19.1921  19.1921  21.6067  21.6067
    28.3276  28.3276  28.9073  28.9073  34.6799  34.6799  35.9293  35.9293
    44.0239  44.0239  45.3808  45.3808  48.3691  48.3691  50.3748  50.3748
    51.8957  51.8957  54.1813  54.1813  57.0407  57.0407  58.4069  58.4069
    63.7318  63.7318  68.3143  68.3143  71.6854  71.6854  74.4401  74.4401
    75.4388  75.4388  78.9557  78.9557  83.6275  83.6275  84.7219  84.7219
    92.3645  92.3645  94.4397  94.4397  96.3484  96.3484 100.4520 100.4520
   100.7995 100.7995 107.1378 107.1378 108.4793 108.4793 109.7232 109.7232
   111.1088 111.1088 112.6471 112.6471 113.5879 113.5879 116.3883 116.3883
   120.5772 120.5772 121.3853 121.3853 122.2791 122.2791 122.5416 122.5416
   123.8840 123.8840 124.2578 124.2578 127.0239 127.0239 127.1581 127.1581
   128.8147 128.8147 129.1866 129.1866 130.0958 130.0959 132.2169 132.2169

     occupation numbers 
     1.0000   1.0000   1.0000   1.0000   1.0000   1.0000   1.0000   1.0000
     1.0000   1.0000   1.0000   1.0000   1.0000   1.0000   1.0000   1.0000
     1.0000   1.0000   1.0000   1.0000   1.0000   1.0000   1.0000   1.0000
     1.0000   1.0000   1.0000   1.0000   1.0000   1.0000   1.0000   1.0000
     1.0000   1.0000   1.0000   1.0000   1.0000   1.0000   1.0000   1.0000
     1.0000   1.0000   1.0000   1.0000   1.0000   1.0000   1.0000   1.0000
     1.0000   1.0000   1.0000   1.0000   1.0000   1.0000   1.0000   1.0000
     1.0000   1.0000   1.0000   1.0000   1.0000   1.0000   1.0000   1.0000
     1.0000   1.0000   1.0000   1.0000   1.0000   1.0000   1.0000   1.0000
     1.0000   1.0000   0.4453   0.4453  -0.0000  -0.0000  -0.0000  -0.0000
    -0.0000  -0.0000  -0.0000  -0.0000  -0.0000  -0.0000  -0.0000  -0.0000
    -0.0000  -0.0000  -0.0000  -0.0000  -0.0000  -0.0000  -0.0000  -0.0000

          k = 0.2500 0.0000-0.2500 (  1025 PWs)   bands (ev):

    10.0559  10.0559  14.6460  14.6460  15.0723  15.0723  16.6968  16.6968
    23.8675  23.8675  24.3942  24.3942  41.4422  41.4422  42.8084  42.8084
    47.1037  47.1037  51.0452  51.0452  51.7668  51.7668  51.8815  51.8815
    57.6932  57.6932  58.7138  58.7138  62.6475  62.6475  64.0054  64.0054
    66.5443  66.5443  67.4438  67.4438  70.1762  70.1762  72.1359  72.1359
    73.5320  73.5320  77.3776  77.3776  86.8372  86.8372  88.2573  88.2573
    92.9305  92.9305  94.2174  94.2174  98.9814  98.9814  99.0114  99.0114
   101.1619 101.1619 102.7442 102.7442 102.9456 102.9456 104.6221 104.6221
   106.3153 106.3153 110.5167 110.5167 110.5315 110.5315 113.8971 113.8971
   115.6995 115.6995 116.5251 116.5251 117.8629 117.8629 119.9902 119.9902
   120.6262 120.6262 122.0598 122.0598 122.8576 122.8576 124.7911 124.7911
   124.9004 124.9004 126.8363 126.8363 127.7792 127.7792 129.5561 129.5562

     occupation numbers 
     1.0000   1.0000   1.0000   1.0000   1.0000   1.0000   1.0000   1.0000
     1.0000   1.0000   1.0000   1.0000   1.0000   1.0000   1.0000   1.0000
     1.0000   1.0000   1.0000   1.0000   1.0000   1.0000   1.0000   1.0000
     1.0000   1.0000   1.0000   1.0000   1.0000   1.0000   1.0000   1.0000
     1.0000   1.0000   1.0000   1.0000   1.0000   1.0000   1.0000   1.0000
     1.0000   1.0000   1.0000   1.0000   1.0000   1.0000   1.0000   1.0000
     1.0000   1.0000   1.0000   1.0000   1.0000   1.0000   1.0000   1.0000
     1.0000   1.0000   1.0000   1.0000   1.0000   1.0000   1.0000   1.0000
     1.0000   1.0000   1.0000   1.0000   1.0000   1.0000   1.0000   1.0000
     1.0000   1.0000   1.0000   1.0000   1.0000   1.0000   1.0000   1.0000
     1.0000   1.0000  -0.0000  -0.0000  -0.0000  -0.0000  -0.0000  -0.0000
    -0.0000  -0.0000  -0.0000  -0.0000  -0.0000  -0.0000  -0.0000  -0.0000

          k = 0.0000 0.2500 0.2500 (  1025 PWs)   bands (ev):

    12.8520  12.8520  13.9076  13.9076  16.3267  16.3267  22.5266  22.5266
    28.4547  28.4547  29.0260  29.0260  33.9963  33.9963  40.0519  40.0519
    44.0570  44.0570  46.5094  46.5094  49.0062  49.0062  53.3635  53.3635
    53.5053  53.5053  56.0556  56.0556  56.2328  56.2328  59.5774  59.5774
    64.0175  64.0175  66.8477  66.8477  68.0787  68.0787  70.9699  70.9699
    75.5808  75.5808  76.0212  76.0212  86.1582  86.1582  87.1609  87.1609
    89.3638  89.3638  92.8997  92.8997  99.2396  99.2396 100.6552 100.6552
   103.3036 103.3036 104.5305 104.5305 108.3548 108.3548 110.0237 110.0237
   110.6048 110.6048 111.3317 111.3317 112.6363 112.6363 115.2981 115.2981
   118.7643 118.7643 120.2257 120.2257 121.8037 121.8037 122.9340 122.9340
   123.2651 123.2651 124.8784 124.8784 127.6473 127.6473 128.0901 128.0901
   129.7615 129.7615 129.8618 129.8618 131.2950 131.2951 132.2105 132.2111

     occupation numbers 
     1.0000   1.0000   1.0000   1.0000   1.0000   1.0000   1.0000   1.0000
     1.0000   1.0000   1.0000   1.0000   1.0000   1.0000   1.0000   1.0000
     1.0000   1.0000   1.0000   1.0000   1.0000   1.0000   1.0000   1.0000
     1.0000   1.0000   1.0000   1.0000   1.0000   1.0000   1.0000   1.0000
     1.0000   1.0000   1.0000   1.0000   1.0000   1.0000   1.0000   1.0000
     1.0000   1.0000   1.0000   1.0000   1.0000   1.0000   1.0000   1.0000
     1.0000   1.0000   1.0000   1.0000   1.0000   1.0000   1.0000   1.0000
     1.0000   1.0000   1.0000   1.0000   1.0000   1.0000   1.0000   1.0000
     1.0000   1.0000   1.0000   1.0000   1.0000   1.0000   1.0000   1.0000
     1.0000   1.0000   1.0000   1.0000  -0.0000  -0.0000  -0.0000  -0.0000
    -0.0000  -0.0000  -0.0000  -0.0000  -0.0000  -0.0000  -0.0000  -0.0000
    -0.0000  -0.0000  -0.0000  -0.0000  -0.0000  -0.0000  -0.0000  -0.0000

          k = 0.5000 0.0000 0.5000 (  1024 PWs)   bands (ev):

    19.1213  19.1213  19.1213  19.1213  26.5722  26.5722  26.5722  26.5722
    28.0950  28.0950  28.0950  28.0950  29.5997  29.5997  29.5997  29.5997
    42.5992  42.5992  42.5992  42.5992  48.3795  48.3795  48.3795  48.3795
    51.9831  51.9831  51.9831  51.9831  60.2516  60.2516  60.2516  60.2516
    64.8247  64.8247  64.8247  64.8247  75.4550  75.4550  75.4550  75.4550
    79.1690  79.1690  79.1690  79.1690  81.8444  81.8444  81.8444  81.8444
    93.4946  93.4946  93.4946  93.4946  98.0544  98.0544  98.0544  98.0544
   104.1051 104.1051 104.1051 104.1051 110.4419 110.4419 110.4419 110.4419
   115.5415 115.5415 115.5415 115.5415 117.5581 117.5581 117.5581 117.5581
   120.2470 120.2470 120.2470 120.2470 122.2258 122.2258 122.2258 122.2258
   123.1266 123.1266 123.1266 123.1266 124.7603 124.7603 124.7603 124.7603
   128.3644 128.3644 128.3644 128.3644 130.2751 130.2751 130.2751 130.2751

     occupation numbers 
     1.0000   1.0000   1.0000   1.0000   1.0000   1.0000   1.0000   1.0000
     1.0000   1.0000   1.0000   1.0000   1.0000   1.0000   1.0000   1.0000
     1.0000   1.0000   1.0000   1.0000   1.0000   1.0000   1.0000   1.0000
     1.0000   1.0000   1.0000   1.0000   1.0000   1.0000   1.0000   1.0000
     1.0000   1.0000   1.0000   1.0000   1.0000   1.0000   1.0000   1.0000
     1.0000   1.0000   1.0000   1.0000   1.0000   1.0000   1.0000   1.0000
     1.0000   1.0000   1.0000   1.0000   1.0000   1.0000   1.0000   1.0000
     1.0000   1.0000   1.0000   1.0000   1.0000   1.0000   1.0000   1.0000
     1.0000   1.0000   1.0000   1.0000   1.0000   1.0000   1.0000   1.0000
     1.0000   1.0000   1.0000   1.0000  -0.0000  -0.0000  -0.0000  -0.0000
    -0.0000  -0.0000  -0.0000  -0.0000  -0.0000  -0.0000  -0.0000  -0.0000
    -0.0000  -0.0000  -0.0000  -0.0000  -0.0000  -0.0000  -0.0000  -0.0000

          k =-0.5000 0.0000 0.5000 (  1024 PWs)   bands (ev):

     7.9049   7.9049  10.9953  10.9953  15.3723  15.3723  17.2101  17.2101
    20.9754  20.9754  21.3942  21.3942  41.8690  41.8690  45.0628  45.0628
    48.8880  48.8880  49.2097  49.2097  53.2453  53.2453  58.1904  58.1904
    58.5179  58.5179  60.0875  60.0875  63.7340  63.7340  67.2195  67.2195
    73.4511  73.4511  76.5722  76.5722  77.4627  77.4627  80.9904  80.9904
    81.6108  81.6108  82.0480  82.0480  83.5542  83.5542  86.1633  86.1633
    87.3422  87.3422  90.9420  90.9420  91.9998  91.9998  95.4389  95.4389
    97.4198  97.4198  98.2333  98.2333 102.1162 102.1162 102.8894 102.8894
   104.0478 104.0478 105.5710 105.5710 108.1268 108.1268 110.5214 110.5214
   112.0806 112.0806 112.8885 112.8885 113.9089 113.9089 116.1161 116.1161
   117.4313 117.4313 119.8008 119.8008 120.9358 120.9358 123.7446 123.7446
   124.9271 124.9271 126.0260 126.0260 126.6882 126.6882 127.8488 127.8488

     occupation numbers 
     1.0000   1.0000   1.0000   1.0000   1.0000   1.0000   1.0000   1.0000
     1.0000   1.0000   1.0000   1.0000   1.0000   1.0000   1.0000   1.0000
     1.0000   1.0000   1.0000   1.0000   1.0000   1.0000   1.0000   1.0000
     1.0000   1.0000   1.0000   1.0000   1.0000   1.0000   1.0000   1.0000
     1.0000   1.0000   1.0000   1.0000   1.0000   1.0000   1.0000   1.0000
     1.0000   1.0000   1.0000   1.0000   1.0000   1.0000   1.0000   1.0000
     1.0000   1.0000   1.0000   1.0000   1.0000   1.0000   1.0000   1.0000
     1.0000   1.0000   1.0000   1.0000   1.0000   1.0000   1.0000   1.0000
     1.0000   1.0000   1.0000   1.0000   1.0000   1.0000   1.0000   1.0000
     1.0000   1.0000   1.0000   1.0000   1.0000   1.0000   1.0000   1.0000
     1.0000   1.0000   1.0000   1.0000   1.0000   1.0000  -0.0000  -0.0000
    -0.0000  -0.0000  -0.0000  -0.0000  -0.0000  -0.0000  -0.0000  -0.0000

          k = 0.0000-0.5000-0.5000 (  1024 PWs)   bands (ev):

    12.8475  12.8475  14.0413  14.0413  16.4193  16.4193  22.5259  22.5259
    28.4632  28.4632  29.0123  29.0123  33.9871  33.9871  40.1724  40.1724
    44.1126  44.1126  46.1619  46.1619  49.4566  49.4566  53.3403  53.3403
    53.7454  53.7454  55.9229  55.9229  55.9828  55.9828  59.1496  59.1496
    64.0803  64.0803  66.9007  66.9007  68.4289  68.4289  70.9563  70.9563
    74.6416  74.6416  76.1867  76.1867  86.2635  86.2635  87.8589  87.8589
    88.0456  88.0456  94.0666  94.0666  98.2203  98.2203  99.6188  99.6188
   104.0480 104.0480 107.3029 107.3029 108.9443 108.9443 109.4200 109.4200
   110.3107 110.3107 113.2193 113.2193 113.7571 113.7571 114.6256 114.6256
   115.3397 115.3397 120.5045 120.5045 123.4363 123.4363 125.7260 125.7260
   126.1846 126.1846 126.3638 126.3638 127.0055 127.0055 128.0049 128.0049
   129.4222 129.4222 130.2958 130.2958 130.3835 130.3835 131.7543 131.7544

     occupation numbers 
     1.0000   1.0000   1.0000   1.0000   1.0000   1.0000   1.0000   1.0000
     1.0000   1.0000   1.0000   1.0000   1.0000   1.0000   1.0000   1.0000
     1.0000   1.0000   1.0000   1.0000   1.0000   1.0000   1.0000   1.0000
     1.0000   1.0000   1.0000   1.0000   1.0000   1.0000   1.0000   1.0000
     1.0000   1.0000   1.0000   1.0000   1.0000   1.0000   1.0000   1.0000
     1.0000   1.0000   1.0000   1.0000   1.0000   1.0000   1.0000   1.0000
     1.0000   1.0000   1.0000   1.0000   1.0000   1.0000   1.0000   1.0000
     1.0000   1.0000   1.0000   1.0000   1.0000   1.0000   1.0000   1.0000
     1.0000   1.0000   1.0000   1.0000   1.0000   1.0000   1.0000   1.0000
     1.0000   1.0000   1.0000   1.0000  -0.0000  -0.0000  -0.0000  -0.0000
    -0.0000  -0.0000  -0.0000  -0.0000  -0.0000  -0.0000  -0.0000  -0.0000
    -0.0000  -0.0000  -0.0000  -0.0000  -0.0000  -0.0000  -0.0000  -0.0000

          k = 0.7500-0.2500 0.5000 (  1029 PWs)   bands (ev):

    14.6418  14.6418  18.8687  18.8687  19.3046  19.3046  21.6077  21.6077
    28.3426  28.3426  28.8886  28.8886  34.6032  34.6032  35.9723  35.9723
    44.1516  44.1516  44.8819  44.8819  48.8127  48.8127  50.2942  50.2942
    52.2556  52.2556  53.8626  53.8626  56.7040  56.7040  58.3947  58.3947
    63.8835  63.8835  68.7577  68.7577  71.7417  71.7417  73.4626  73.4626
    75.7991  75.7991  78.3176  78.3176  83.6395  83.6395  84.7223  84.7223
    90.4306  90.4306  94.5653  94.5653  97.0999  97.0999 101.2338 101.2338
   104.3142 104.3142 105.8678 105.8678 108.6304 108.6304 111.5319 111.5319
   112.1180 112.1180 114.2000 114.2000 114.6204 114.6204 116.5034 116.5034
   117.7247 117.7247 119.6177 119.6177 121.4232 121.4232 123.0766 123.0766
   124.2498 124.2498 126.2321 126.2321 127.2551 127.2551 127.5838 127.5838
   128.4459 128.4459 130.0068 130.0068 130.6297 130.6297 130.9087 130.9087

     occupation numbers 
     1.0000   1.0000   1.0000   1.0000   1.0000   1.0000   1.0000   1.0000
     1.0000   1.0000   1.0000   1.0000   1.0000   1.0000   1.0000   1.0000
     1.0000   1.0000   1.0000   1.0000   1.0000   1.0000   1.0000   1.0000
     1.0000   1.0000   1.0000   1.0000   1.0000   1.0000   1.0000   1.0000
     1.0000   1.0000   1.0000   1.0000   1.0000   1.0000   1.0000   1.0000
     1.0000   1.0000   1.0000   1.0000   1.0000   1.0000   1.0000   1.0000
     1.0000   1.0000   1.0000   1.0000   1.0000   1.0000   1.0000   1.0000
     1.0000   1.0000   1.0000   1.0000   1.0000   1.0000   1.0000   1.0000
     1.0000   1.0000   1.0000   1.0000   1.0000   1.0000   1.0000   1.0000
     1.0000   1.0000   1.0000   1.0000   0.2278   0.2278  -0.0000  -0.0000
    -0.0000  -0.0000  -0.0000  -0.0000  -0.0000  -0.0000  -0.0000  -0.0000
    -0.0000  -0.0000  -0.0000  -0.0000  -0.0000  -0.0000  -0.0000  -0.0000

          k = 0.7500 0.2500-0.5000 (  1029 PWs)   bands (ev):

    10.0610  10.0610  14.7855  14.7855  15.0741  15.0741  16.7939  16.7939
    23.8653  23.8653  24.4140  24.4140  41.4813  41.4813  42.6023  42.6023
    47.1890  47.1890  50.8717  50.8717  51.6122  51.6122  52.5957  52.5957
    57.2749  57.2749  58.6025  58.6025  62.9349  62.9349  64.2233  64.2233
    66.1593  66.1593  67.8229  67.8229  69.5474  69.5474  72.2887  72.2887
    73.4944  73.4944  77.1729  77.1729  86.9090  86.9090  88.7691  88.7691
    92.0457  92.0457  92.6454  92.6454  98.8515  98.8515 100.1904 100.1904
   100.3873 100.3873 103.7450 103.7450 104.6750 104.6750 104.6971 104.6971
   107.1776 107.1776 110.2086 110.2086 111.1469 111.1469 114.1126 114.1126
   115.8960 115.8960 116.4257 116.4257 118.9305 118.9305 119.2321 119.2321
   121.6511 121.6511 121.7680 121.7680 123.4373 123.4373 125.0697 125.0697
   126.3479 126.3479 127.9678 127.9678 128.3931 128.3931 129.0438 129.0438

     occupation numbers 
     1.0000   1.0000   1.0000   1.0000   1.0000   1.0000   1.0000   1.0000
     1.0000   1.0000   1.0000   1.0000   1.0000   1.0000   1.0000   1.0000
     1.0000   1.0000   1.0000   1.0000   1.0000   1.0000   1.0000   1.0000
     1.0000   1.0000   1.0000   1.0000   1.0000   1.0000   1.0000   1.0000
     1.0000   1.0000   1.0000   1.0000   1.0000   1.0000   1.0000   1.0000
     1.0000   1.0000   1.0000   1.0000   1.0000   1.0000   1.0000   1.0000
     1.0000   1.0000   1.0000   1.0000   1.0000   1.0000   1.0000   1.0000
     1.0000   1.0000   1.0000   1.0000   1.0000   1.0000   1.0000   1.0000
     1.0000   1.0000   1.0000   1.0000   1.0000   1.0000   1.0000   1.0000
     1.0000   1.0000   1.0000   1.0000   1.0000   1.0000   1.0000   1.0000
    -0.0075  -0.0075  -0.0002  -0.0002  -0.0000  -0.0000  -0.0000  -0.0000
    -0.0000  -0.0000  -0.0000  -0.0000  -0.0000  -0.0000  -0.0000  -0.0000

          k =-0.7500-0.2500-0.5000 (  1029 PWs)   bands (ev):

    14.3742  14.3742  16.1159  16.1159  24.0648  24.0648  24.2848  24.2848
    26.2907  26.2907  26.6011  26.6011  28.4434  28.4434  28.8512  28.8512
    47.9089  47.9089  48.2312  48.2312  50.5992  50.5992  55.0243  55.0243
    56.2984  56.2984  58.2706  58.2706  63.9724  63.9724  64.5928  64.5928
    67.0179  67.0179  68.7136  68.7136  70.5778  70.5778  73.2192  73.2192
    74.7965  74.7965  81.0428  81.0428  81.7062  81.7062  82.6089  82.6089
    92.6705  92.6705  94.1141  94.1141  97.1878  97.1878  97.7135  97.7135
   103.3557 103.3557 103.4470 103.4470 105.9327 105.9327 106.3217 106.3217
   107.0507 107.0507 111.2464 111.2464 113.7690 113.7690 114.4744 114.4744
   117.4484 117.4484 118.2371 118.2371 119.7900 119.7900 120.5150 120.5150
   122.8474 122.8474 123.0329 123.0329 123.7783 123.7783 125.4443 125.4443
   125.5774 125.5774 126.1068 126.1068 127.6415 127.6415 128.6134 128.6135

     occupation numbers 
     1.0000   1.0000   1.0000   1.0000   1.0000   1.0000   1.0000   1.0000
     1.0000   1.0000   1.0000   1.0000   1.0000   1.0000   1.0000   1.0000
     1.0000   1.0000   1.0000   1.0000   1.0000   1.0000   1.0000   1.0000
     1.0000   1.0000   1.0000   1.0000   1.0000   1.0000   1.0000   1.0000
     1.0000   1.0000   1.0000   1.0000   1.0000   1.0000   1.0000   1.0000
     1.0000   1.0000   1.0000   1.0000   1.0000   1.0000   1.0000   1.0000
     1.0000   1.0000   1.0000   1.0000   1.0000   1.0000   1.0000   1.0000
     1.0000   1.0000   1.0000   1.0000   1.0000   1.0000   1.0000   1.0000
     1.0000   1.0000   1.0000   1.0000   1.0000   1.0000   1.0000   1.0000
     1.0000   1.0000   1.0000   1.0000   1.0000   1.0000   1.0000   1.0000
    -0.0000  -0.0000  -0.0000  -0.0000  -0.0000  -0.0000  -0.0000  -0.0000
    -0.0000  -0.0000  -0.0000  -0.0000  -0.0000  -0.0000  -0.0000  -0.0000

          k =-0.5000-0.7500-0.2500 (  1029 PWs)   bands (ev):

     7.9043   7.9043  10.9948  10.9948  15.3658  15.3658  17.2102  17.2102
    20.9748  20.9748  21.3941  21.3941  41.8689  41.8689  45.0427  45.0427
    48.8944  48.8944  49.1896  49.1896  53.1755  53.1755  58.3225  58.3225
    58.5214  58.5214  60.0878  60.0878  63.7389  63.7389  67.2502  67.2502
    73.4615  73.4615  76.5517  76.5517  77.3573  77.3573  80.9350  80.9350
    81.5004  81.5004  82.1917  82.1917  83.5436  83.5436  86.3326  86.3326
    87.2945  87.2945  91.0576  91.0576  92.0426  92.0426  95.5185  95.5185
    96.8497  96.8497  99.0287  99.0287 101.5344 101.5344 102.2584 102.2584
   104.4830 104.4830 105.5107 105.5107 108.0117 108.0117 110.8083 110.8083
   112.4657 112.4657 112.6256 112.6256 115.8219 115.8219 115.8374 115.8374
   116.4516 116.4516 120.2407 120.2407 120.7842 120.7842 121.7132 121.7132
   124.2985 124.2985 125.2243 125.2243 127.3073 127.3074 127.7609 127.7610

     occupation numbers 
     1.0000   1.0000   1.0000   1.0000   1.0000   1.0000   1.0000   1.0000
     1.0000   1.0000   1.0000   1.0000   1.0000   1.0000   1.0000   1.0000
     1.0000   1.0000   1.0000   1.0000   1.0000   1.0000   1.0000   1.0000
     1.0000   1.0000   1.0000   1.0000   1.0000   1.0000   1.0000   1.0000
     1.0000   1.0000   1.0000   1.0000   1.0000   1.0000   1.0000   1.0000
     1.0000   1.0000   1.0000   1.0000   1.0000   1.0000   1.0000   1.0000
     1.0000   1.0000   1.0000   1.0000   1.0000   1.0000   1.0000   1.0000
     1.0000   1.0000   1.0000   1.0000   1.0000   1.0000   1.0000   1.0000
     1.0000   1.0000   1.0000   1.0000   1.0000   1.0000   1.0000   1.0000
     1.0000   1.0000   1.0000   1.0000   1.0000   1.0000   1.0000   1.0000
     1.0000   1.0000   1.0000   1.0000   1.0000   1.0000  -0.0013  -0.0013
    -0.0000  -0.0000  -0.0000  -0.0000  -0.0000  -0.0000  -0.0000  -0.0000

          k = 0.5000-0.7500 0.2500 (  1029 PWs)   bands (ev):

    11.9517  11.9517  14.5485  14.5485  19.3440  19.3440  19.7957  19.7957
    23.8783  23.8783  24.4943  24.4943  36.3048  36.3048  39.4814  39.4814
    48.5873  48.5873  49.6138  49.6138  50.5074  50.5074  51.3586  51.3586
    56.4408  56.4408  59.4707  59.4707  62.2498  62.2498  65.5439  65.5439
    65.7758  65.7758  69.1638  69.1638  70.1587  70.1587  74.0118  74.0118
    77.9711  77.9711  81.8377  81.8377  82.0748  82.0748  84.5285  84.5285
    94.7692  94.7692  95.3658  95.3658  95.4329  95.4329 100.1283 100.1283
   100.5404 100.5404 103.9648 103.9648 105.2330 105.2330 107.2238 107.2238
   109.0418 109.0418 110.3603 110.3603 110.8960 110.8960 114.1148 114.1148
   115.3613 115.3613 116.6409 116.6409 118.2117 118.2117 120.0669 120.0669
   120.2671 120.2671 121.3204 121.3204 124.0005 124.0005 124.2467 124.2467
   125.8168 125.8168 126.2579 126.2579 127.8912 127.8912 129.0632 129.0633

     occupation numbers 
     1.0000   1.0000   1.0000   1.0000   1.0000   1.0000   1.0000   1.0000
     1.0000   1.0000   1.0000   1.0000   1.0000   1.0000   1.0000   1.0000
     1.0000   1.0000   1.0000   1.0000   1.0000   1.0000   1.0000   1.0000
     1.0000   1.0000   1.0000   1.0000   1.0000   1.0000   1.0000   1.0000
     1.0000   1.0000   1.0000   1.0000   1.0000   1.0000   1.0000   1.0000
     1.0000   1.0000   1.0000   1.0000   1.0000   1.0000   1.0000   1.0000
     1.0000   1.0000   1.0000   1.0000   1.0000   1.0000   1.0000   1.0000
     1.0000   1.0000   1.0000   1.0000   1.0000   1.0000   1.0000   1.0000
     1.0000   1.0000   1.0000   1.0000   1.0000   1.0000   1.0000   1.0000
     1.0000   1.0000   1.0000   1.0000   1.0000   1.0000   1.0000   1.0000
     1.0000   1.0000   0.8181   0.8181  -0.0000  -0.0000  -0.0000  -0.0000
    -0.0000  -0.0000  -0.0000  -0.0000  -0.0000  -0.0000  -0.0000  -0.0000

          k =-0.5000 0.7500 0.2500 (  1029 PWs)   bands (ev):

    19.1181  19.1181  19.1240  19.1240  26.5608  26.5608  26.5743  26.5743
    28.0452  28.0452  28.1355  28.1355  29.5188  29.5188  29.6772  29.6772
    42.4621  42.4621  42.7346  42.7346  48.1769  48.1769  48.5783  48.5783
    51.7328  51.7328  52.2592  52.2592  60.0854  60.0854  60.4288  60.4288
    64.7078  64.7078  64.9198  64.9198  75.0066  75.0066  75.9677  75.9677
    79.0893  79.0893  79.2421  79.2421  81.8709  81.8709  81.9673  81.9673
    92.7614  92.7614  95.1692  95.1692  96.1162  96.1162  99.2693  99.2693
   100.3031 100.3031 107.9592 107.9592 110.0564 110.0564 112.2200 112.2200
   112.8864 112.8864 115.5677 115.5677 116.5320 116.5320 117.5142 117.5142
   119.8341 119.8341 121.7198 121.7198 121.8321 121.8321 123.0139 123.0139
   123.8267 123.8267 124.3805 124.3805 124.8465 124.8465 126.7400 126.7400
   128.1221 128.1221 128.2266 128.2266 129.8803 129.8803 130.2300 130.2300

     occupation numbers 
     1.0000   1.0000   1.0000   1.0000   1.0000   1.0000   1.0000   1.0000
     1.0000   1.0000   1.0000   1.0000   1.0000   1.0000   1.0000   1.0000
     1.0000   1.0000   1.0000   1.0000   1.0000   1.0000   1.0000   1.0000
     1.0000   1.0000   1.0000   1.0000   1.0000   1.0000   1.0000   1.0000
     1.0000   1.0000   1.0000   1.0000   1.0000   1.0000   1.0000   1.0000
     1.0000   1.0000   1.0000   1.0000   1.0000   1.0000   1.0000   1.0000
     1.0000   1.0000   1.0000   1.0000   1.0000   1.0000   1.0000   1.0000
     1.0000   1.0000   1.0000   1.0000   1.0000   1.0000   1.0000   1.0000
     1.0000   1.0000   1.0000   1.0000   1.0000   1.0000   1.0000   1.0000
     1.0000   1.0000  -0.0010  -0.0010  -0.0000  -0.0000  -0.0000  -0.0000
    -0.0000  -0.0000  -0.0000  -0.0000  -0.0000  -0.0000  -0.0000  -0.0000
    -0.0000  -0.0000  -0.0000  -0.0000  -0.0000  -0.0000  -0.0000  -0.0000

          k = 0.5000 0.0000 0.0000 (  1020 PWs)   bands (ev):

    11.9555  11.9555  14.5489  14.5489  19.2639  19.2639  19.7736  19.7736
    23.8932  23.8932  24.4936  24.4936  36.3481  36.3481  39.7852  39.7852
    48.3615  48.3615  49.7386  49.7386  50.3701  50.3701  51.4349  51.4349
    56.3877  56.3877  59.5769  59.5769  61.9749  61.9749  65.5152  65.5152
    65.8063  65.8063  69.5769  69.5769  69.8893  69.8893  73.9704  73.9704
    77.9315  77.9315  81.9412  81.9412  82.1187  82.1187  85.0249  85.0249
    94.7561  94.7561  95.5666  95.5666  96.6232  96.6232  97.5793  97.5793
    98.1031  98.1031 103.8579 103.8579 103.9960 103.9960 106.5284 106.5284
   108.8293 108.8293 110.7204 110.7204 112.6628 112.6628 116.3951 116.3951
   117.0771 117.0771 117.6207 117.6207 118.6416 118.6416 118.7144 118.7144
   119.3877 119.3877 121.8246 121.8246 123.0790 123.0790 124.0898 124.0898
   125.2567 125.2567 126.5844 126.5844 126.8063 126.8063 129.2766 129.2767

     occupation numbers 
     1.0000   1.0000   1.0000   1.0000   1.0000   1.0000   1.0000   1.0000
     1.0000   1.0000   1.0000   1.0000   1.0000   1.0000   1.0000   1.0000
     1.0000   1.0000   1.0000   1.0000   1.0000   1.0000   1.0000   1.0000
     1.0000   1.0000   1.0000   1.0000   1.0000   1.0000   1.0000   1.0000
     1.0000   1.0000   1.0000   1.0000   1.0000   1.0000   1.0000   1.0000
     1.0000   1.0000   1.0000   1.0000   1.0000   1.0000   1.0000   1.0000
     1.0000   1.0000   1.0000   1.0000   1.0000   1.0000   1.0000   1.0000
     1.0000   1.0000   1.0000   1.0000   1.0000   1.0000   1.0000   1.0000
     1.0000   1.0000   1.0000   1.0000   1.0000   1.0000   1.0000   1.0000
     1.0000   1.0000   1.0000   1.0000   1.0000   1.0000   1.0000   1.0000
     1.0000   1.0000  -0.0000  -0.0000  -0.0000  -0.0000  -0.0000  -0.0000
    -0.0000  -0.0000  -0.0000  -0.0000  -0.0000  -0.0000  -0.0000  -0.0000

          k = 0.7500 0.0000 0.2500 (  1038 PWs)   bands (ev):

    14.3802  14.3802  16.1174  16.1174  24.1053  24.1053  24.3046  24.3046
    26.3769  26.3769  26.6710  26.6710  28.4912  28.4912  29.1643  29.1643
    47.7874  47.7874  48.1380  48.1380  50.4839  50.4839  55.2268  55.2268
    56.2618  56.2618  57.8868  57.8868  63.9880  63.9880  64.5938  64.5938
    66.9831  66.9831  68.3706  68.3706  70.7947  70.7947  73.4302  73.4302
    74.9755  74.9755  80.9916  80.9916  81.8531  81.8531  82.1846  82.1846
    90.8574  90.8574  94.9750  94.9750  94.9900  94.9900  98.0269  98.0269
   101.3369 101.3369 102.8871 102.8871 105.4366 105.4366 106.8158 106.8158
   111.0878 111.0878 112.7055 112.7055 115.7097 115.7097 116.7427 116.7427
   117.6953 117.6953 117.8582 117.8582 119.4873 119.4873 120.0969 120.0969
   120.9599 120.9599 121.3301 121.3301 122.9915 122.9915 124.5545 124.5545
   126.8036 126.8036 128.2027 128.2027 128.3511 128.3511 129.2903 129.2903

     occupation numbers 
     1.0000   1.0000   1.0000   1.0000   1.0000   1.0000   1.0000   1.0000
     1.0000   1.0000   1.0000   1.0000   1.0000   1.0000   1.0000   1.0000
     1.0000   1.0000   1.0000   1.0000   1.0000   1.0000   1.0000   1.0000
     1.0000   1.0000   1.0000   1.0000   1.0000   1.0000   1.0000   1.0000
     1.0000   1.0000   1.0000   1.0000   1.0000   1.0000   1.0000   1.0000
     1.0000   1.0000   1.0000   1.0000   1.0000   1.0000   1.0000   1.0000
     1.0000   1.0000   1.0000   1.0000   1.0000   1.0000   1.0000   1.0000
     1.0000   1.0000   1.0000   1.0000   1.0000   1.0000   1.0000   1.0000
     1.0000   1.0000   1.0000   1.0000   1.0000   1.0000   1.0000   1.0000
     1.0000   1.0000   1.0000   1.0000   1.0000   1.0000   1.0000   1.0000
     1.0001   1.0001   0.7709   0.7709  -0.0000  -0.0000  -0.0000  -0.0000
    -0.0000  -0.0000  -0.0000  -0.0000  -0.0000  -0.0000  -0.0000  -0.0000

          k =-0.7500 0.0000 0.2500 (  1038 PWs)   bands (ev):

     9.6005   9.6005  12.1034  12.1034  18.8927  18.8927  19.4680  19.4680
    21.3378  21.3378  21.6011  21.6011  36.0732  36.0732  39.3050  39.3050
    50.6612  50.6612  51.8697  51.8697  54.3749  54.3749  54.9208  54.9208
    59.0509  59.0509  59.1633  59.1633  63.9514  63.9514  68.0819  68.0819
    74.6854  74.6854  75.6666  75.6666  77.5609  77.5609  78.4398  78.4398
    79.9750  79.9750  82.3393  82.3393  83.1001  83.1001  86.3607  86.3607
    86.6031  86.6031  89.9438  89.9438  90.3064  90.3064  94.7472  94.7472
    95.2455  95.2455  99.2655  99.2655  99.7630  99.7630 101.3931 101.3931
   101.4840 101.4840 103.7106 103.7106 108.3483 108.3483 114.6365 114.6365
   115.4941 115.4941 116.6152 116.6152 118.1209 118.1209 118.2314 118.2314
   120.7858 120.7858 121.7339 121.7339 122.7222 122.7222 124.8107 124.8107
   126.1656 126.1656 126.2951 126.2951 128.4303 128.4303 129.0182 129.0182

     occupation numbers 
     1.0000   1.0000   1.0000   1.0000   1.0000   1.0000   1.0000   1.0000
     1.0000   1.0000   1.0000   1.0000   1.0000   1.0000   1.0000   1.0000
     1.0000   1.0000   1.0000   1.0000   1.0000   1.0000   1.0000   1.0000
     1.0000   1.0000   1.0000   1.0000   1.0000   1.0000   1.0000   1.0000
     1.0000   1.0000   1.0000   1.0000   1.0000   1.0000   1.0000   1.0000
     1.0000   1.0000   1.0000   1.0000   1.0000   1.0000   1.0000   1.0000
     1.0000   1.0000   1.0000   1.0000   1.0000   1.0000   1.0000   1.0000
     1.0000   1.0000   1.0000   1.0000   1.0000   1.0000   1.0000   1.0000
     1.0000   1.0000   1.0000   1.0000   1.0000   1.0000   1.0000   1.0000
     1.0000   1.0000   1.0000   1.0000   1.0000   1.0000   1.0000   1.0000
     1.0000   1.0000  -0.0006  -0.0006  -0.0000  -0.0000  -0.0000  -0.0000
    -0.0000  -0.0000  -0.0000  -0.0000  -0.0000  -0.0000  -0.0000  -0.0000

          k = 0.0000-0.7500-0.2500 (  1038 PWs)   bands (ev):

    11.6511  11.6511  17.1331  17.1331  18.5943  18.5943  19.0837  19.0837
    24.4145  24.4145  24.5217  24.5217  35.8733  35.8733  36.2308  36.2308
    47.1675  47.1675  49.1933  49.1933  53.5636  53.5636  53.6105  53.6105
    55.7415  55.7415  59.3609  59.3609  63.4671  63.4671  65.4250  65.4250
    66.6153  66.6153  67.9946  67.9946  69.9176  69.9176  70.6857  70.6857
    72.2649  72.2649  76.3755  76.3755  84.7260  84.7260  87.0943  87.0943
    89.8043  89.8043  92.6594  92.6594  96.7948  96.7948 100.1393 100.1393
   100.3503 100.3503 101.3258 101.3258 104.5669 104.5669 105.6037 105.6037
   107.6372 107.6372 113.4789 113.4789 114.0678 114.0678 114.4677 114.4677
   116.1283 116.1283 120.3134 120.3134 120.9980 120.9980 121.1594 121.1594
   121.6326 121.6326 124.3974 124.3974 125.4644 125.4644 126.3569 126.3569
   127.9712 127.9712 128.8221 128.8222 129.4049 129.4049 129.7316 129.7316

     occupation numbers 
     1.0000   1.0000   1.0000   1.0000   1.0000   1.0000   1.0000   1.0000
     1.0000   1.0000   1.0000   1.0000   1.0000   1.0000   1.0000   1.0000
     1.0000   1.0000   1.0000   1.0000   1.0000   1.0000   1.0000   1.0000
     1.0000   1.0000   1.0000   1.0000   1.0000   1.0000   1.0000   1.0000
     1.0000   1.0000   1.0000   1.0000   1.0000   1.0000   1.0000   1.0000
     1.0000   1.0000   1.0000   1.0000   1.0000   1.0000   1.0000   1.0000
     1.0000   1.0000   1.0000   1.0000   1.0000   1.0000   1.0000   1.0000
     1.0000   1.0000   1.0000   1.0000   1.0000   1.0000   1.0000   1.0000
     1.0000   1.0000   1.0000   1.0000   1.0000   1.0000   1.0000   1.0000
     1.0000   1.0000   1.0000   1.0000   1.0003   1.0003   1.0233   1.0233
    -0.0115  -0.0115  -0.0000  -0.0000  -0.0000  -0.0000  -0.0000  -0.0000
    -0.0000  -0.0000  -0.0000  -0.0000  -0.0000  -0.0000  -0.0000  -0.0000

     the Fermi energy is   121.3765 ev

!    total energy              =    -494.78441290 Ry
     estimated scf accuracy    <          6.0E-09 Ry
     smearing contrib. (-TS)   =      -0.00051884 Ry
     internal energy E=F+TS    =    -494.78389406 Ry

     The total energy is F=E-TS. E is the sum of the following terms:
     one-electron contribution =     364.79982813 Ry
     hartree contribution      =     126.05961263 Ry
     xc contribution           =    -223.44142232 Ry
     ewald contribution        =    -762.20191249 Ry

     convergence has been achieved in  19 iterations

     negative rho (up, down):  5.187E-02 0.000E+00

     Forces acting on atoms (cartesian axes, Ry/au):

     atom    1 type  1   force =   -61.72937002  -54.70621096   54.70621096
     atom    2 type  1   force =    61.72937002   54.70621096  -54.70621096
     atom    3 type  1   force =    61.72938847   54.70619505  -54.70619505
     atom    4 type  1   force =   -61.72938847  -54.70619505   54.70619505
     atom    5 type  2   force =     0.00000000    0.00000000    0.00000000
     atom    6 type  2   force =     0.00000000    0.00000000    0.00000000
     The non-local contrib.  to forces
     atom    1 type  1   force =     6.85298894    7.16884729   -7.16884729
     atom    2 type  1   force =    -6.85298894   -7.16884729    7.16884729
     atom    3 type  1   force =    -6.85297369   -7.16886038    7.16886038
     atom    4 type  1   force =     6.85297369    7.16886038   -7.16886038
     atom    5 type  2   force =     0.00000000    0.00000000    0.00000000
     atom    6 type  2   force =     0.00000000    0.00000000    0.00000000
     The ionic contribution  to forces
     atom    1 type  1   force =   -93.99469155  -76.48868097   76.48868097
     atom    2 type  1   force =    93.99469155   76.48868097  -76.48868097
     atom    3 type  1   force =    93.99469155   76.48868097  -76.48868097
     atom    4 type  1   force =   -93.99469155  -76.48868097   76.48868097
     atom    5 type  2   force =     0.00000000    0.00000000   -0.00000000
     atom    6 type  2   force =    -0.00000000   -0.00000000    0.00000000
     The local contribution  to forces
     atom    1 type  1   force =    24.25367178   13.63699525  -13.63699525
     atom    2 type  1   force =   -24.25367178  -13.63699525   13.63699525
     atom    3 type  1   force =   -24.25367116  -13.63699717   13.63699717
     atom    4 type  1   force =    24.25367116   13.63699717  -13.63699717
     atom    5 type  2   force =     0.00000000   -0.00000000    0.00000000
     atom    6 type  2   force =    -0.00000000    0.00000000    0.00000000
     The core correction contribution to forces
     atom    1 type  1   force =     1.15873671    0.97666016   -0.97666016
     atom    2 type  1   force =    -1.15873671   -0.97666016    0.97666016
     atom    3 type  1   force =    -1.15873583   -0.97666086    0.97666086
     atom    4 type  1   force =     1.15873583    0.97666086   -0.97666086
     atom    5 type  2   force =     0.00000000   -0.00000000    0.00000000
     atom    6 type  2   force =    -0.00000000    0.00000000   -0.00000000
     The Hubbard contrib.    to forces
     atom    1 type  1   force =     0.00000000    0.00000000    0.00000000
     atom    2 type  1   force =     0.00000000    0.00000000    0.00000000
     atom    3 type  1   force =     0.00000000    0.00000000    0.00000000
     atom    4 type  1   force =     0.00000000    0.00000000    0.00000000
     atom    5 type  2   force =     0.00000000    0.00000000    0.00000000
     atom    6 type  2   force =     0.00000000    0.00000000    0.00000000
     The SCF correction term to forces
     atom    1 type  1   force =    -0.00007590   -0.00003270    0.00003270
     atom    2 type  1   force =     0.00007590    0.00003270   -0.00003270
     atom    3 type  1   force =     0.00007758    0.00003250   -0.00003250
     atom    4 type  1   force =    -0.00007758   -0.00003250    0.00003250
     atom    5 type  2   force =     0.00000000    0.00000000   -0.00000000
     atom    6 type  2   force =     0.00000000    0.00000000   -0.00000000

     Total force =   197.950030     Total SCF correction =     0.000179


     Computing stress (Cartesian axis) and pressure


     negative rho (up, down):  5.187E-02 0.000E+00
          total   stress  (Ry/bohr**3)                   (kbar)     P=   336632.44
   2.75905926   1.07196136  -1.07196136       405871.63   157690.96  -157690.96
   1.07196136   2.05304159  -1.89838620       157690.96   302012.84  -279262.25
  -1.07196136  -1.89838620   2.05304159      -157690.96  -279262.25   302012.84

     kinetic stress (kbar) 364219.49   7380.80  -7380.80
                             7380.80 371030.37   2107.53
                            -7380.80   2107.53 371030.37

     local   stress (kbar)   5390.38   4440.71  -4440.71
                             4440.71 485960.38 543795.99
                            -4440.71 543795.99 485960.38

     nonloc. stress (kbar) -55560.02 -15584.68  15584.68
                           -15584.68 -49666.16  16016.33
                            15584.68  16016.33 -49666.16

     hartree stress (kbar) 118413.36  -6093.83   6093.83
                            -6093.83  11536.49-115573.83
                             6093.83-115573.83  11536.49

     exc-cor stress (kbar)  44894.54      0.00      0.00
                                0.00  44894.54      0.00
                                0.00      0.00  44894.54

     corecor stress (kbar)-115398.15  -3955.26   3955.26
                            -3955.26-112047.98   7479.75
                             3955.26   7479.75-112047.98

     ewald   stress (kbar)  43912.04 171503.22-171503.22
                           171503.22-449694.79-733088.03
                          -171503.22-733088.03-449694.79

     hubbard stress (kbar)      0.00      0.00      0.00
                                0.00      0.00      0.00
                                0.00      0.00      0.00

     DFT-D   stress (kbar)      0.00      0.00      0.00
                                0.00      0.00      0.00
                                0.00      0.00      0.00

     XDM     stress (kbar)      0.00      0.00      0.00
                                0.00      0.00      0.00
                                0.00      0.00      0.00

     dft-nl  stress (kbar)      0.00      0.00      0.00
                                0.00      0.00      0.00
                                0.00      0.00      0.00

     TS-vdW  stress (kbar)      0.00      0.00      0.00
                                0.00      0.00      0.00
                                0.00      0.00      0.00

     MDB     stress (kbar)      0.00      0.00      0.00
                                0.00      0.00      0.00
                                0.00      0.00      0.00

     3D-RISM stress (kbar)      0.00      0.00      0.00
                                0.00      0.00      0.00
                                0.00      0.00      0.00


     BFGS Geometry Optimization
     Energy error            =      0.0E+00 Ry
     Gradient error          =      6.2E+01 Ry/Bohr
     Cell gradient error     =      4.1E+05 kbar

[...]
     1.0000   1.0000   1.0000   1.0000   1.0000   1.0000   1.0000   1.0000
     1.0000   1.0000   1.0000   1.0000   1.0000   1.0000   1.0000   1.0000
     1.0000   1.0000   1.0000   1.0000   1.0000   1.0000   1.0000   1.0000
     1.0000   1.0000   1.0000   1.0000   1.0000   1.0000   1.0000   1.0000
     1.0000   1.0000   1.0000   1.0000   1.0000   1.0000  -0.0159  -0.0159
    -0.0053  -0.0053  -0.0000  -0.0000  -0.0000  -0.0000  -0.0000  -0.0000
    -0.0000  -0.0000  -0.0000  -0.0000  -0.0000  -0.0000  -0.0000  -0.0000

          k =-0.3729-0.2946-0.4713 (  1029 PWs)   bands (ev):

     2.6043   2.6043   2.9339   2.9339   4.1201   4.1201   4.7759   4.7759
     6.0185   6.0185   6.1893   6.1893   7.4464   7.4464   7.7451   7.7451
    10.1578  10.1578  10.8111  10.8111  11.6206  11.6206  11.8096  11.8096
    12.3688  12.3688  12.5471  12.5471  14.9173  14.9173  15.1666  15.1666
    16.3271  16.3271  16.9483  16.9483  17.2907  17.2907  18.9426  18.9426
    20.0993  20.0993  21.3050  21.3050  26.0777  26.0777  28.2803  28.2803
    29.3369  29.3369  30.4778  30.4778  31.7047  31.7047  32.3678  32.3678
    32.6528  32.6528  33.3311  33.3311  33.4933  33.4933  33.6266  33.6266
    34.3697  34.3697  34.5524  34.5524  35.9512  35.9512  38.0500  38.0500
    39.2048  39.2048  39.2790  39.2790  40.7360  40.7360  41.7291  41.7291
    43.6090  43.6090  43.8228  43.8228  46.6801  46.6801  46.7514  46.7514
    47.8346  47.8346  48.8635  48.8635  49.5950  49.5950  50.6671  50.6671

     occupation numbers 
     1.0000   1.0000   1.0000   1.0000   1.0000   1.0000   1.0000   1.0000
     1.0000   1.0000   1.0000   1.0000   1.0000   1.0000   1.0000   1.0000
     1.0000   1.0000   1.0000   1.0000   1.0000   1.0000   1.0000   1.0000
     1.0000   1.0000   1.0000   1.0000   1.0000   1.0000   1.0000   1.0000
     1.0000   1.0000   1.0000   1.0000   1.0000   1.0000   1.0000   1.0000
     1.0000   1.0000   1.0000   1.0000   1.0000   1.0000   1.0000   1.0000
     1.0000   1.0000   1.0000   1.0000   1.0000   1.0000   1.0000   1.0000
     1.0000   1.0000   1.0000   1.0000   1.0000   1.0000   1.0000   1.0000
     1.0000   1.0000   1.0000   1.0000   1.0000   1.0000   1.0000   1.0000
     1.0000   1.0000   1.0000   1.0000   1.0000   1.0000   1.0000   1.0000
    -0.0000  -0.0000  -0.0000  -0.0000  -0.0000  -0.0000  -0.0000  -0.0000
    -0.0000  -0.0000  -0.0000  -0.0000  -0.0000  -0.0000  -0.0000  -0.0000

          k =-0.3163-0.6626-0.3585 (  1029 PWs)   bands (ev):

     3.1637   3.1637   3.8690   3.8690   4.5854   4.5854   4.7217   4.7217
     4.8973   4.8973   5.3446   5.3446   7.4142   7.4142   7.7697   7.7697
     9.6230   9.6230   9.7134   9.7134  10.0190  10.0190  10.7450  10.7450
    13.3863  13.3863  13.5250  13.5250  14.7980  14.7980  16.1053  16.1053
    16.5534  16.5534  17.0122  17.0122  17.9580  17.9580  18.2488  18.2488
    20.5298  20.5298  24.0678  24.0678  25.1039  25.1039  25.7046  25.7046
    27.3175  27.3175  30.4478  30.4478  30.8795  30.8795  31.7736  31.7736
    31.8847  31.8847  33.8201  33.8201  34.1001  34.1001  34.2628  34.2628
    34.9324  34.9324  35.5761  35.5761  35.8911  35.8911  36.9166  36.9166
    38.3272  38.3272  40.6443  40.6443  40.9019  40.9019  41.3915  41.3915
    43.4931  43.4931  45.1767  45.1767  46.7538  46.7538  47.5089  47.5089
    47.5347  47.5347  49.1104  49.1104  50.3884  50.3884  51.3427  51.3427

     occupation numbers 
     1.0000   1.0000   1.0000   1.0000   1.0000   1.0000   1.0000   1.0000
     1.0000   1.0000   1.0000   1.0000   1.0000   1.0000   1.0000   1.0000
     1.0000   1.0000   1.0000   1.0000   1.0000   1.0000   1.0000   1.0000
     1.0000   1.0000   1.0000   1.0000   1.0000   1.0000   1.0000   1.0000
     1.0000   1.0000   1.0000   1.0000   1.0000   1.0000   1.0000   1.0000
     1.0000   1.0000   1.0000   1.0000   1.0000   1.0000   1.0000   1.0000
     1.0000   1.0000   1.0000   1.0000   1.0000   1.0000   1.0000   1.0000
     1.0000   1.0000   1.0000   1.0000   1.0000   1.0000   1.0000   1.0000
     1.0000   1.0000   1.0000   1.0000   1.0000   1.0000   1.0000   1.0000
     1.0000   1.0000   1.0000   1.0000   1.0000   1.0000   1.0000   1.0000
    -0.0000  -0.0000  -0.0000  -0.0000  -0.0000  -0.0000  -0.0000  -0.0000
    -0.0000  -0.0000  -0.0000  -0.0000  -0.0000  -0.0000  -0.0000  -0.0000

          k = 0.1640-0.5779 0.0673 (  1029 PWs)   bands (ev):

     2.9101   2.9101   3.9793   3.9793   4.3272   4.3272   4.8273   4.8273
     4.9924   4.9924   5.7502   5.7502   7.5073   7.5073   7.8483   7.8483
     9.6246   9.6246  10.4249  10.4249  10.6644  10.6644  11.0571  11.0571
    12.9914  12.9914  13.5938  13.5938  14.2808  14.2808  16.2385  16.2385
    16.7048  16.7048  17.4655  17.4655  17.7154  17.7154  18.4618  18.4618
    20.2422  20.2422  22.1723  22.1723  25.4939  25.4939  27.1965  27.1965
    28.5443  28.5443  29.9695  29.9695  31.4658  31.4658  31.9201  31.9201
    32.3288  32.3288  32.9168  32.9168  33.6115  33.6115  33.9108  33.9108
    34.3382  34.3382  34.6386  34.6386  36.4761  36.4761  38.3099  38.3099
    38.4352  38.4352  40.2312  40.2312  40.3222  40.3222  42.9563  42.9563
    44.3364  44.3364  44.4332  44.4332  46.6611  46.6611  46.8813  46.8813
    48.7271  48.7271  49.1483  49.1483  51.0460  51.0460  51.1709  51.1709

     occupation numbers 
     1.0000   1.0000   1.0000   1.0000   1.0000   1.0000   1.0000   1.0000
     1.0000   1.0000   1.0000   1.0000   1.0000   1.0000   1.0000   1.0000
     1.0000   1.0000   1.0000   1.0000   1.0000   1.0000   1.0000   1.0000
     1.0000   1.0000   1.0000   1.0000   1.0000   1.0000   1.0000   1.0000
     1.0000   1.0000   1.0000   1.0000   1.0000   1.0000   1.0000   1.0000
     1.0000   1.0000   1.0000   1.0000   1.0000   1.0000   1.0000   1.0000
     1.0000   1.0000   1.0000   1.0000   1.0000   1.0000   1.0000   1.0000
     1.0000   1.0000   1.0000   1.0000   1.0000   1.0000   1.0000   1.0000
     1.0000   1.0000   1.0000   1.0000   1.0000   1.0000   1.0000   1.0000
     1.0000   1.0000   1.0000   1.0000   1.0000   1.0000   0.3444   0.3444
    -0.0000  -0.0000  -0.0000  -0.0000  -0.0000  -0.0000  -0.0000  -0.0000
    -0.0000  -0.0000  -0.0000  -0.0000  -0.0000  -0.0000  -0.0000  -0.0000

          k =-0.2148 0.6750 0.3462 (  1029 PWs)   bands (ev):

     2.3735   2.3735   2.9262   2.9262   4.2234   4.2234   4.8291   4.8291
     5.8971   5.8971   6.1004   6.1004   7.3645   7.3645   7.6253   7.6253
    10.2997  10.2997  10.4749  10.4749  11.6137  11.6137  11.6668  11.6668
    12.2478  12.2478  12.3278  12.3278  15.0826  15.0826  15.3250  15.3250
    16.0274  16.0274  16.7522  16.7522  17.2120  17.2120  19.1096  19.1096
    20.0177  20.0177  20.5611  20.5611  27.9807  27.9807  28.8796  28.8796
    29.1265  29.1265  30.0356  30.0356  31.1357  31.1357  32.1448  32.1448
    32.5865  32.5865  33.3757  33.3757  33.4487  33.4487  33.5383  33.5383
    33.8351  33.8351  34.7424  34.7424  36.4707  36.4707  36.7265  36.7265
    37.6839  37.6839  39.3298  39.3298  40.1090  40.1090  41.1893  41.1893
    42.2943  42.2943  45.0924  45.0924  46.4841  46.4841  48.3274  48.3274
    49.8417  49.8417  49.9471  49.9471  51.7918  51.7918  52.3834  52.3834

     occupation numbers 
     1.0000   1.0000   1.0000   1.0000   1.0000   1.0000   1.0000   1.0000
     1.0000   1.0000   1.0000   1.0000   1.0000   1.0000   1.0000   1.0000
     1.0000   1.0000   1.0000   1.0000   1.0000   1.0000   1.0000   1.0000
     1.0000   1.0000   1.0000   1.0000   1.0000   1.0000   1.0000   1.0000
     1.0000   1.0000   1.0000   1.0000   1.0000   1.0000   1.0000   1.0000
     1.0000   1.0000   1.0000   1.0000   1.0000   1.0000   1.0000   1.0000
     1.0000   1.0000   1.0000   1.0000   1.0000   1.0000   1.0000   1.0000
     1.0000   1.0000   1.0000   1.0000   1.0000   1.0000   1.0000   1.0000
     1.0000   1.0000   1.0000   1.0000   1.0000   1.0000   1.0000   1.0000
     1.0000   1.0000   1.0000   1.0000   1.0000   1.0000   1.0000   1.0000
     1.0000   1.0000  -0.0000  -0.0000  -0.0000  -0.0000  -0.0000  -0.0000
    -0.0000  -0.0000  -0.0000  -0.0000  -0.0000  -0.0000  -0.0000  -0.0000

          k = 0.2655-0.0062 0.0062 (  1020 PWs)   bands (ev):

     2.8776   2.8776   3.9976   3.9976   4.3247   4.3247   4.9240   4.9240
     5.1904   5.1904   5.6552   5.6552   7.4882   7.4882   7.7319   7.7319
     9.5406   9.5406  10.1472  10.1472  10.5902  10.5902  10.8857  10.8857
    12.9145  12.9145  13.6222  13.6222  14.0288  14.0288  16.1293  16.1293
    16.3188  16.3188  17.3452  17.3452  17.3972  17.3972  18.6311  18.6311
    20.0620  20.0620  22.8412  22.8412  27.3142  27.3142  27.9542  27.9542
    29.3854  29.3854  29.6978  29.6978  31.1472  31.1472  31.4466  31.4466
    32.0194  32.0194  32.9280  32.9280  33.7157  33.7157  34.2916  34.2916
    35.1440  35.1440  35.3775  35.3775  35.8607  35.8607  36.3888  36.3888
    37.2612  37.2612  39.6180  39.6180  39.7775  39.7775  42.9913  42.9913
    43.2564  43.2564  43.6790  43.6790  44.5497  44.5497  48.8162  48.8162
    49.2899  49.2899  49.7697  49.7697  51.1692  51.1692  51.2377  51.2377

     occupation numbers 
     1.0000   1.0000   1.0000   1.0000   1.0000   1.0000   1.0000   1.0000
     1.0000   1.0000   1.0000   1.0000   1.0000   1.0000   1.0000   1.0000
     1.0000   1.0000   1.0000   1.0000   1.0000   1.0000   1.0000   1.0000
     1.0000   1.0000   1.0000   1.0000   1.0000   1.0000   1.0000   1.0000
     1.0000   1.0000   1.0000   1.0000   1.0000   1.0000   1.0000   1.0000
     1.0000   1.0000   1.0000   1.0000   1.0000   1.0000   1.0000   1.0000
     1.0000   1.0000   1.0000   1.0000   1.0000   1.0000   1.0000   1.0000
     1.0000   1.0000   1.0000   1.0000   1.0000   1.0000   1.0000   1.0000
     1.0000   1.0000   1.0000   1.0000   1.0000   1.0000   1.0000   1.0000
     1.0000   1.0000   1.0000   1.0000   1.0000   1.0000   0.1614   0.1614
    -0.0018  -0.0018  -0.0000  -0.0000  -0.0000  -0.0000  -0.0000  -0.0000
    -0.0000  -0.0000  -0.0000  -0.0000  -0.0000  -0.0000  -0.0000  -0.0000

          k = 0.3729 0.0393 0.2160 (  1038 PWs)   bands (ev):

     2.4967   2.4967   2.8777   2.8777   4.2713   4.2713   4.8373   4.8373
     5.8381   5.8381   6.0201   6.0201   7.2432   7.2432   7.5535   7.5535
    10.0289  10.0289  10.4608  10.4608  11.4461  11.4461  11.5724  11.5724
    12.1933  12.1933  12.4408  12.4408  14.8157  14.8157  15.0408  15.0408
    16.7318  16.7318  16.7740  16.7740  17.8492  17.8492  18.6659  18.6659
    20.2800  20.2800  20.9956  20.9956  26.9324  26.9324  27.6615  27.6615
    29.1666  29.1666  29.3452  29.3452  31.0026  31.0026  31.1532  31.1532
    32.1756  32.1756  33.3455  33.3455  33.5671  33.5671  33.9316  33.9316
    34.1736  34.1736  34.7414  34.7414  35.3513  35.3513  36.9338  36.9338
    38.8859  38.8859  40.1655  40.1655  40.9083  40.9083  41.9909  41.9909
    43.6242  43.6242  44.8926  44.8926  47.4203  47.4203  48.7306  48.7306
    48.8122  48.8122  49.3070  49.3070  50.6397  50.6397  51.4866  51.4866

     occupation numbers 
     1.0000   1.0000   1.0000   1.0000   1.0000   1.0000   1.0000   1.0000
     1.0000   1.0000   1.0000   1.0000   1.0000   1.0000   1.0000   1.0000
     1.0000   1.0000   1.0000   1.0000   1.0000   1.0000   1.0000   1.0000
     1.0000   1.0000   1.0000   1.0000   1.0000   1.0000   1.0000   1.0000
     1.0000   1.0000   1.0000   1.0000   1.0000   1.0000   1.0000   1.0000
     1.0000   1.0000   1.0000   1.0000   1.0000   1.0000   1.0000   1.0000
     1.0000   1.0000   1.0000   1.0000   1.0000   1.0000   1.0000   1.0000
     1.0000   1.0000   1.0000   1.0000   1.0000   1.0000   1.0000   1.0000
     1.0000   1.0000   1.0000   1.0000   1.0000   1.0000   1.0000   1.0000
     1.0000   1.0000   1.0000   1.0000   1.0000   1.0000   1.0000   1.0000
    -0.0000  -0.0000  -0.0000  -0.0000  -0.0000  -0.0000  -0.0000  -0.0000
    -0.0000  -0.0000  -0.0000  -0.0000  -0.0000  -0.0000  -0.0000  -0.0000

          k =-0.4236 0.0578 0.1975 (  1038 PWs)   bands (ev):

     2.7367   2.7367   3.7218   3.7218   4.1528   4.1528   4.8211   4.8211
     4.9787   4.9787   5.5146   5.5146   7.3330   7.3330   7.8838   7.8838
     9.9978   9.9978  10.2841  10.2841  10.8368  10.8368  10.8891  10.8891
    13.0766  13.0766  13.5268  13.5268  14.2317  14.2317  16.3894  16.3894
    17.0534  17.0534  17.1208  17.1208  17.9771  17.9771  19.0042  19.0042
    20.5780  20.5780  21.6832  21.6832  24.7952  24.7952  27.7554  27.7554
    28.2739  28.2739  28.6709  28.6709  30.9151  30.9151  32.0760  32.0760
    32.1270  32.1270  33.1942  33.1942  33.8226  33.8226  34.1148  34.1148
    34.3779  34.3779  34.5391  34.5391  36.5132  36.5132  37.8542  37.8542
    39.1964  39.1964  39.6027  39.6027  40.7822  40.7822  42.0350  42.0350
    43.5835  43.5835  46.2258  46.2258  46.3163  46.3163  46.8975  46.8975
    48.9857  48.9857  50.6024  50.6024  50.7704  50.7704  51.3449  51.3449

     occupation numbers 
     1.0000   1.0000   1.0000   1.0000   1.0000   1.0000   1.0000   1.0000
     1.0000   1.0000   1.0000   1.0000   1.0000   1.0000   1.0000   1.0000
     1.0000   1.0000   1.0000   1.0000   1.0000   1.0000   1.0000   1.0000
     1.0000   1.0000   1.0000   1.0000   1.0000   1.0000   1.0000   1.0000
     1.0000   1.0000   1.0000   1.0000   1.0000   1.0000   1.0000   1.0000
     1.0000   1.0000   1.0000   1.0000   1.0000   1.0000   1.0000   1.0000
     1.0000   1.0000   1.0000   1.0000   1.0000   1.0000   1.0000   1.0000
     1.0000   1.0000   1.0000   1.0000   1.0000   1.0000   1.0000   1.0000
     1.0000   1.0000   1.0000   1.0000   1.0000   1.0000   1.0000   1.0000
     1.0000   1.0000   1.0000   1.0000   1.0000   1.0000   1.0000   1.0000
    -0.0000  -0.0000  -0.0000  -0.0000  -0.0000  -0.0000  -0.0000  -0.0000
    -0.0000  -0.0000  -0.0000  -0.0000  -0.0000  -0.0000  -0.0000  -0.0000

          k =-0.0508-0.6688-0.3524 (  1038 PWs)   bands (ev):

     2.6939   2.6939   3.7845   3.7845   4.1103   4.1103   4.7421   4.7421
     5.1501   5.1501   5.3943   5.3943   7.4335   7.4335   8.0378   8.0378
    10.3598  10.3598  10.6621  10.6621  11.1953  11.1953  11.5667  11.5667
    13.1013  13.1013  13.2698  13.2698  14.7934  14.7934  16.7084  16.7084
    17.2307  17.2307  17.3702  17.3702  18.4773  18.4773  19.2095  19.2095
    19.3082  19.3082  21.5014  21.5014  26.5000  26.5000  27.4207  27.4207
    27.8149  27.8149  28.6772  28.6772  30.1267  30.1267  32.0747  32.0747
    32.3453  32.3453  32.6754  32.6754  32.7132  32.7132  33.8515  33.8515
    34.5743  34.5743  35.4484  35.4484  37.0134  37.0134  38.2930  38.2930
    38.5386  38.5386  39.2479  39.2479  41.4242  41.4242  41.7945  41.7945
    43.9864  43.9864  47.7298  47.7298  47.9537  47.9537  48.8303  48.8303
    49.6739  49.6739  49.7197  49.7197  50.7661  50.7661  51.7471  51.7471

     occupation numbers 
     1.0000   1.0000   1.0000   1.0000   1.0000   1.0000   1.0000   1.0000
     1.0000   1.0000   1.0000   1.0000   1.0000   1.0000   1.0000   1.0000
     1.0000   1.0000   1.0000   1.0000   1.0000   1.0000   1.0000   1.0000
     1.0000   1.0000   1.0000   1.0000   1.0000   1.0000   1.0000   1.0000
     1.0000   1.0000   1.0000   1.0000   1.0000   1.0000   1.0000   1.0000
     1.0000   1.0000   1.0000   1.0000   1.0000   1.0000   1.0000   1.0000
     1.0000   1.0000   1.0000   1.0000   1.0000   1.0000   1.0000   1.0000
     1.0000   1.0000   1.0000   1.0000   1.0000   1.0000   1.0000   1.0000
     1.0000   1.0000   1.0000   1.0000   1.0000   1.0000   1.0000   1.0000
     1.0000   1.0000   1.0000   1.0000   1.0000   1.0000   1.0000   1.0000
    -0.0000  -0.0000  -0.0000  -0.0000  -0.0000  -0.0000  -0.0000  -0.0000
    -0.0000  -0.0000  -0.0000  -0.0000  -0.0000  -0.0000  -0.0000  -0.0000

     the Fermi energy is    42.9308 ev

!    total energy              =    -724.31196863 Ry
     estimated scf accuracy    <          6.0E-09 Ry
     smearing contrib. (-TS)   =      -0.00010047 Ry
     internal energy E=F+TS    =    -724.31186816 Ry

     The total energy is F=E-TS. E is the sum of the following terms:
     one-electron contribution =      76.11880759 Ry
     hartree contribution      =      95.57421935 Ry
     xc contribution           =    -180.20297802 Ry
     ewald contribution        =    -715.80191708 Ry

     convergence has been achieved in  15 iterations

     Forces acting on atoms (cartesian axes, Ry/au):

     atom    1 type  1   force =    -3.53431010   -2.22704595    2.22704595
     atom    2 type  1   force =     3.53431010    2.22704595   -2.22704595
     atom    3 type  1   force =     3.49585329    1.60745290   -1.60745290
     atom    4 type  1   force =    -3.49585329   -1.60745290    1.60745290
     atom    5 type  2   force =     0.00000000    0.00000000    0.00000000
     atom    6 type  2   force =     0.00000000    0.00000000    0.00000000
     The non-local contrib.  to forces
     atom    1 type  1   force =    -0.26447855    0.02653760   -0.02653760
     atom    2 type  1   force =     0.26447855   -0.02653760    0.02653760
     atom    3 type  1   force =     0.25393821   -0.06627870    0.06627870
     atom    4 type  1   force =    -0.25393821    0.06627870   -0.06627870
     atom    5 type  2   force =     0.00000000    0.00000000    0.00000000
     atom    6 type  2   force =     0.00000000    0.00000000    0.00000000
     The ionic contribution  to forces
     atom    1 type  1   force =   -15.93163958  -11.63107034   11.63107034
     atom    2 type  1   force =    15.93163958   11.63107034  -11.63107034
     atom    3 type  1   force =    15.89824956    9.19184894   -9.19184894
     atom    4 type  1   force =   -15.89824956   -9.19184894    9.19184894
     atom    5 type  2   force =     0.00000000    0.00000000    0.00000000
     atom    6 type  2   force =    -0.00000000   -0.00000000    0.00000000
     The local contribution  to forces
     atom    1 type  1   force =    12.51441063    9.28928456   -9.28928456
     atom    2 type  1   force =   -12.51441063   -9.28928456    9.28928456
     atom    3 type  1   force =   -12.50870370   -7.45258783    7.45258783
     atom    4 type  1   force =    12.50870370    7.45258783   -7.45258783
     atom    5 type  2   force =    -0.00000000   -0.00000000    0.00000000
     atom    6 type  2   force =    -0.00000000    0.00000000   -0.00000000
     The core correction contribution to forces
     atom    1 type  1   force =     0.14767230    0.08798335   -0.08798335
     atom    2 type  1   force =    -0.14767230   -0.08798335    0.08798335
     atom    3 type  1   force =    -0.14728217   -0.06596819    0.06596819
     atom    4 type  1   force =     0.14728217    0.06596819   -0.06596819
     atom    5 type  2   force =    -0.00000000   -0.00000000    0.00000000
     atom    6 type  2   force =    -0.00000000    0.00000000    0.00000000
     The Hubbard contrib.    to forces
     atom    1 type  1   force =     0.00000000    0.00000000    0.00000000
     atom    2 type  1   force =     0.00000000    0.00000000    0.00000000
     atom    3 type  1   force =     0.00000000    0.00000000    0.00000000
     atom    4 type  1   force =     0.00000000    0.00000000    0.00000000
     atom    5 type  2   force =     0.00000000    0.00000000    0.00000000
     atom    6 type  2   force =     0.00000000    0.00000000    0.00000000
     The SCF correction term to forces
     atom    1 type  1   force =    -0.00027490    0.00021888   -0.00021888
     atom    2 type  1   force =     0.00027490   -0.00021888    0.00021888
     atom    3 type  1   force =    -0.00034861    0.00043869   -0.00043869
     atom    4 type  1   force =     0.00034861   -0.00043869    0.00043869
     atom    5 type  2   force =    -0.00000000   -0.00000000   -0.00000000
     atom    6 type  2   force =    -0.00000000    0.00000000   -0.00000000

     Total force =     8.921840     Total SCF correction =     0.001164


     Computing stress (Cartesian axis) and pressure

[mpiexec@DESKTOP-9GB854E] Sending Ctrl-C to processes as requested
[mpiexec@DESKTOP-9GB854E] Press Ctrl-C again to force abort
