
     Program BANDS v.7.2 starts on 30Dec2023 at 18:46:35 

     This program is part of the open-source Quantum ESPRESSO suite
     for quantum simulation of materials; please cite
         "P. Giannozzi et al., J. Phys.:Condens. Matter 21 395502 (2009);
         "P. Giannozzi et al., J. Phys.:Condens. Matter 29 465901 (2017);
         "P. Giannozzi et al., J. Chem. Phys. 152 154105 (2020);
          URL http://www.quantum-espresso.org", 
     in publications or presentations arising from this work. More details at
     http://www.quantum-espresso.org/quote

     Parallel version (MPI), running on     4 processors

     MPI processes distributed on     1 nodes
     R & G space division:  proc/nbgrp/npool/nimage =       4
     5265 MiB available memory on the printing compute node when the environment starts
 

     Reading xml data from directory:

     ./STO/STO.save/
     file Sr.pz-spn-kjpaw_psl.1.0.0.UPF: wavefunction(s)  4P renormalized
     file Ti.pz-spn-kjpaw_psl.1.0.0.UPF: wavefunction(s)  3S 3P 3D renormalized

     IMPORTANT: XC functional enforced from input :
     Exchange-correlation= PZ
                           (   1   1   0   0   0   0   0)
     Any further DFT definition will be discarded
     Please, verify this is what you really want

 
     Parallelization info
     --------------------
     sticks:   dense  smooth     PW     G-vecs:    dense   smooth      PW
     Min         780     391    109                32547    11573    1779
     Max         782     392    110                32550    11576    1784
     Sum        3125    1565    437               130195    46297    7123
 
     Using Slab Decomposition
 
     Reading collected, re-writing distributed wavefunctions
     high-symmetry point:  0.0000 0.0000 0.0000   x coordinate   0.0000
     high-symmetry point:  0.5000 0.5000 0.0000   x coordinate   0.7071
     high-symmetry point:  0.0000 0.5000 0.0000   x coordinate   1.2071
     high-symmetry point:  0.0000 0.0000 0.0000   x coordinate   1.7071
     high-symmetry point:  0.5000 0.5000 0.5000   x coordinate   2.5731

     Plottable bands (eV) written to file STO.band.gnu
     Bands written to file STO.band

 **************************************************************************

                    xk=(   0.00000,   0.00000,   0.00000  )

     point group O_h (m-3m) 
     there are 10 classes
     the character table:

       E     8C3   3C2   6C4   6C2'  i     8S6   3s_h  6S4   6s_d 
A_1g   1.00  1.00  1.00  1.00  1.00  1.00  1.00  1.00  1.00  1.00
A_2g   1.00  1.00  1.00 -1.00 -1.00  1.00  1.00  1.00 -1.00 -1.00
E_g    2.00 -1.00  2.00  0.00  0.00  2.00 -1.00  2.00  0.00  0.00
T_1g   3.00  0.00 -1.00  1.00 -1.00  3.00  0.00 -1.00  1.00 -1.00
T_2g   3.00  0.00 -1.00 -1.00  1.00  3.00  0.00 -1.00 -1.00  1.00
A_1u   1.00  1.00  1.00  1.00  1.00 -1.00 -1.00 -1.00 -1.00 -1.00
A_2u   1.00  1.00  1.00 -1.00 -1.00 -1.00 -1.00 -1.00  1.00  1.00
E_u    2.00 -1.00  2.00  0.00  0.00 -2.00  1.00 -2.00  0.00  0.00
T_1u   3.00  0.00 -1.00  1.00 -1.00 -3.00  0.00  1.00 -1.00  1.00
T_2u   3.00  0.00 -1.00 -1.00  1.00 -3.00  0.00  1.00  1.00 -1.00

     the symmetry operations in each class and the name of the first element:

     E        1
                                                                 
     8C3     17   19   20   18   24   21   22   23
                                                                 
     3C2      2    4    3
                                                                 
     6C4      7    8   15   16   12   11
                                                                 
     6C2'     5    6   14   13   10    9
                                                                 
     i       25
                                                                 
     8S6     41   43   44   42   48   45   46   47
                                                                 
     3s_h    26   28   27
                                                                 
     6S4     31   32   39   40   36   35
                                                                 
     6s_d    29   30   38   37   34   33
                                                                 

     Band symmetry, O_h (m-3m)  point group:

     e(  1 -  1) =    -46.01445  eV     1   --> A_1g G_1   G_1+
     e(  2 -  2) =    -22.73164  eV     1   --> A_1g G_1   G_1+
     e(  3 -  5) =    -22.60817  eV     3   --> T_1u G_15  G_4-
     e(  6 -  6) =     -7.39727  eV     1   --> A_1g G_1   G_1+
     e(  7 -  8) =     -6.36561  eV     2   --> E_g  G_12  G_3+
     e(  9 - 11) =     -4.76858  eV     3   --> T_1u G_15  G_4-
     e( 12 - 14) =      6.93472  eV     3   --> T_1u G_15  G_4-
     e( 15 - 17) =      8.56553  eV     3   --> T_2u G_25  G_5-
     e( 18 - 20) =      9.42791  eV     3   --> T_1u G_15  G_4-
     e( 21 - 23) =     11.53960  eV     3   --> T_2g G_25' G_5+
     e( 24 - 24) =     14.17240  eV     1   -->   ?

 **************************************************************************

 **************************************************************************

                    xk=(   0.02500,   0.02500,   0.00000  )

     point group C_2v (mm2) 
     there are  4 classes
     the character table:

       E     C2    s_v   s_v' 
A_1    1.00  1.00  1.00  1.00
A_2    1.00  1.00 -1.00 -1.00
B_1    1.00 -1.00  1.00 -1.00
B_2    1.00 -1.00 -1.00  1.00

     the symmetry operations in each class and the name of the first element:

     E        1
                                                                 
     C2       2
                                                                 
     s_v      3
                                                                 
     s_v'     4
                                                                 

     Band symmetry, C_2v (mm2)  point group:

     e(  1 -  1) =    -46.01443  eV     1   --> A_1  D_1  S_1  
     e(  2 -  2) =    -22.73282  eV     1   --> A_1  D_1  S_1  
     e(  3 -  3) =    -22.60862  eV     1   --> B_1  D_3  S_3  
     e(  4 -  4) =    -22.60813  eV     1   --> B_2  D_4  S_4  
     e(  5 -  5) =    -22.60710  eV     1   --> A_1  D_1  S_1  
     e(  6 -  6) =     -7.39747  eV     1   --> A_1  D_1  S_1  
     e(  7 -  7) =     -6.36701  eV     1   --> B_1  D_3  S_3  
     e(  8 -  8) =     -6.36567  eV     1   --> A_1  D_1  S_1  
     e(  9 -  9) =     -4.76795  eV     1   --> B_2  D_4  S_4  
     e( 10 - 10) =     -4.76540  eV     1   --> B_1  D_3  S_3  
     e( 11 - 11) =     -4.76044  eV     1   --> A_1  D_1  S_1  
     e( 12 - 12) =      6.91841  eV     1   --> A_1  D_1  S_1  
     e( 13 - 13) =      6.93209  eV     1   --> B_1  D_3  S_3  
     e( 14 - 14) =      6.93350  eV     1   --> B_2  D_4  S_4  
     e( 15 - 15) =      8.53418  eV     1   --> A_1  D_1  S_1  
     e( 16 - 16) =      8.54694  eV     1   --> A_2  D_2  S_2  
     e( 17 - 17) =      8.56566  eV     1   --> B_1  D_3  S_3  
     e( 18 - 18) =      9.39194  eV     1   --> A_1  D_1  S_1  
     e( 19 - 19) =      9.40784  eV     1   --> B_1  D_3  S_3  
     e( 20 - 20) =      9.41700  eV     1   --> B_2  D_4  S_4  
     e( 21 - 21) =     11.55478  eV     1   --> B_2  D_4  S_4  
     e( 22 - 22) =     11.56041  eV     1   --> A_2  D_2  S_2  
     e( 23 - 23) =     11.57308  eV     1   --> A_1  D_1  S_1  
     e( 24 - 24) =     14.18392  eV     1   --> A_1  D_1  S_1  

 **************************************************************************

 **************************************************************************

                    xk=(   0.05000,   0.05000,   0.00000  )

     Band symmetry, C_2v (mm2)  point group:

     e(  1 -  1) =    -46.01437  eV     1   --> A_1  D_1  S_1  
     e(  2 -  2) =    -22.73615  eV     1   --> A_1  D_1  S_1  
     e(  3 -  3) =    -22.60996  eV     1   --> B_1  D_3  S_3  
     e(  4 -  4) =    -22.60801  eV     1   --> B_2  D_4  S_4  
     e(  5 -  5) =    -22.60412  eV     1   --> A_1  D_1  S_1  
     e(  6 -  6) =     -7.39801  eV     1   --> A_1  D_1  S_1  
     e(  7 -  7) =     -6.37111  eV     1   --> B_1  D_3  S_3  
     e(  8 -  8) =     -6.36536  eV     1   --> A_1  D_1  S_1  
     e(  9 -  9) =     -4.76607  eV     1   --> B_2  D_4  S_4  
     e( 10 - 10) =     -4.75598  eV     1   --> B_1  D_3  S_3  
     e( 11 - 11) =     -4.73690  eV     1   --> A_1  D_1  S_1  
     e( 12 - 12) =      6.87053  eV     1   --> A_1  D_1  S_1  
     e( 13 - 13) =      6.92361  eV     1   --> B_1  D_3  S_3  
     e( 14 - 14) =      6.92989  eV     1   --> B_2  D_4  S_4  
     e( 15 - 15) =      8.44344  eV     1   --> A_1  D_1  S_1  
     e( 16 - 16) =      8.49311  eV     1   --> A_2  D_2  S_2  
     e( 17 - 17) =      8.56628  eV     1   --> B_1  D_3  S_3  
     e( 18 - 18) =      9.29114  eV     1   --> A_1  D_1  S_1  
     e( 19 - 19) =      9.35062  eV     1   --> B_1  D_3  S_3  
     e( 20 - 20) =      9.38508  eV     1   --> B_2  D_4  S_4  
     e( 21 - 21) =     11.59938  eV     1   --> B_2  D_4  S_4  
     e( 22 - 22) =     11.62076  eV     1   --> A_2  D_2  S_2  
     e( 23 - 23) =     11.66611  eV     1   --> A_1  D_1  S_1  
     e( 24 - 24) =     14.21724  eV     1   --> A_1  D_1  S_1  

 **************************************************************************

 **************************************************************************

                    xk=(   0.07500,   0.07500,   0.00000  )

     Band symmetry, C_2v (mm2)  point group:

     e(  1 -  1) =    -46.01427  eV     1   --> A_1  D_1  S_1  
     e(  2 -  2) =    -22.74104  eV     1   --> A_1  D_1  S_1  
     e(  3 -  3) =    -22.61215  eV     1   --> B_1  D_3  S_3  
     e(  4 -  4) =    -22.60782  eV     1   --> B_2  D_4  S_4  
     e(  5 -  5) =    -22.59981  eV     1   --> A_1  D_1  S_1  
     e(  6 -  6) =     -7.39867  eV     1   --> A_1  D_1  S_1  
     e(  7 -  7) =     -6.37773  eV     1   --> B_1  D_3  S_3  
     e(  8 -  8) =     -6.36341  eV     1   --> A_1  D_1  S_1  
     e(  9 -  9) =     -4.76297  eV     1   --> B_2  D_4  S_4  
     e( 10 - 10) =     -4.74061  eV     1   --> B_1  D_3  S_3  
     e( 11 - 11) =     -4.70042  eV     1   --> A_1  D_1  S_1  
     e( 12 - 12) =      6.79411  eV     1   --> A_1  D_1  S_1  
     e( 13 - 13) =      6.90753  eV     1   --> B_1  D_3  S_3  
     e( 14 - 14) =      6.92409  eV     1   --> B_2  D_4  S_4  
     e( 15 - 15) =      8.30190  eV     1   --> A_1  D_1  S_1  
     e( 16 - 16) =      8.40924  eV     1   --> A_2  D_2  S_2  
     e( 17 - 17) =      8.56787  eV     1   --> B_1  D_3  S_3  
     e( 18 - 18) =      9.14208  eV     1   --> A_1  D_1  S_1  
     e( 19 - 19) =      9.26454  eV     1   --> B_1  D_3  S_3  
     e( 20 - 20) =      9.33437  eV     1   --> B_2  D_4  S_4  
     e( 21 - 21) =     11.67081  eV     1   --> B_2  D_4  S_4  
     e( 22 - 22) =     11.71521  eV     1   --> A_2  D_2  S_2  
     e( 23 - 23) =     11.80193  eV     1   --> A_1  D_1  S_1  
     e( 24 - 24) =     14.26906  eV     1   --> A_1  D_1  S_1  

 **************************************************************************

 **************************************************************************

                    xk=(   0.10000,   0.10000,   0.00000  )

     Band symmetry, C_2v (mm2)  point group:

     e(  1 -  1) =    -46.01413  eV     1   --> A_1  D_1  S_1  
     e(  2 -  2) =    -22.74677  eV     1   --> A_1  D_1  S_1  
     e(  3 -  3) =    -22.61513  eV     1   --> B_1  D_3  S_3  
     e(  4 -  4) =    -22.60754  eV     1   --> B_2  D_4  S_4  
     e(  5 -  5) =    -22.59491  eV     1   --> A_1  D_1  S_1  
     e(  6 -  6) =     -7.39901  eV     1   --> A_1  D_1  S_1  
     e(  7 -  7) =     -6.38656  eV     1   --> B_1  D_3  S_3  
     e(  8 -  8) =     -6.35828  eV     1   --> A_1  D_1  S_1  
     e(  9 -  9) =     -4.75871  eV     1   --> B_2  D_4  S_4  
     e( 10 - 10) =     -4.71978  eV     1   --> B_1  D_3  S_3  
     e( 11 - 11) =     -4.65452  eV     1   --> A_1  D_1  S_1  
     e( 12 - 12) =      6.69368  eV     1   --> A_1  D_1  S_1  
     e( 13 - 13) =      6.88121  eV     1   --> B_1  D_3  S_3  
     e( 14 - 14) =      6.91638  eV     1   --> B_2  D_4  S_4  
     e( 15 - 15) =      8.12034  eV     1   --> A_1  D_1  S_1  
     e( 16 - 16) =      8.30219  eV     1   --> A_2  D_2  S_2  
     e( 17 - 17) =      8.57049  eV     1   --> B_1  D_3  S_3  
     e( 18 - 18) =      8.96313  eV     1   --> A_1  D_1  S_1  
     e( 19 - 19) =      9.16172  eV     1   --> B_1  D_3  S_3  
     e( 20 - 20) =      9.26783  eV     1   --> B_2  D_4  S_4  
     e( 21 - 21) =     11.76549  eV     1   --> B_2  D_4  S_4  
     e( 22 - 22) =     11.83648  eV     1   --> A_2  D_2  S_2  
     e( 23 - 23) =     11.96349  eV     1   --> A_1  D_1  S_1  
     e( 24 - 24) =     14.33508  eV     1   --> A_1  D_1  S_1  

 **************************************************************************

 **************************************************************************

                    xk=(   0.12500,   0.12500,   0.00000  )

     Band symmetry, C_2v (mm2)  point group:

     e(  1 -  1) =    -46.01397  eV     1   --> A_1  D_1  S_1  
     e(  2 -  2) =    -22.75266  eV     1   --> A_1  D_1  S_1  
     e(  3 -  3) =    -22.61885  eV     1   --> B_1  D_3  S_3  
     e(  4 -  4) =    -22.60721  eV     1   --> B_2  D_4  S_4  
     e(  5 -  5) =    -22.59007  eV     1   --> A_1  D_1  S_1  
     e(  6 -  6) =     -7.39829  eV     1   --> A_1  D_1  S_1  
     e(  7 -  7) =     -6.39722  eV     1   --> B_1  D_3  S_3  
     e(  8 -  8) =     -6.34871  eV     1   --> A_1  D_1  S_1  
     e(  9 -  9) =     -4.75335  eV     1   --> B_2  D_4  S_4  
     e( 10 - 10) =     -4.69410  eV     1   --> B_1  D_3  S_3  
     e( 11 - 11) =     -4.60323  eV     1   --> A_1  D_1  S_1  
     e( 12 - 12) =      6.57464  eV     1   --> A_1  D_1  S_1  
     e( 13 - 13) =      6.84153  eV     1   --> B_1  D_3  S_3  
     e( 14 - 14) =      6.90717  eV     1   --> B_2  D_4  S_4  
     e( 15 - 15) =      7.90901  eV     1   --> A_1  D_1  S_1  
     e( 16 - 16) =      8.17895  eV     1   --> A_2  D_2  S_2  
     e( 17 - 17) =      8.57235  eV     1   --> B_1  D_3  S_3  
     e( 18 - 18) =      8.77085  eV     1   --> A_1  D_1  S_1  
     e( 19 - 19) =      9.05712  eV     1   --> B_1  D_3  S_3  
     e( 20 - 20) =      9.18865  eV     1   --> B_2  D_4  S_4  
     e( 21 - 21) =     11.87943  eV     1   --> B_2  D_4  S_4  
     e( 22 - 22) =     11.97697  eV     1   --> A_2  D_2  S_2  
     e( 23 - 23) =     12.13809  eV     1   --> A_1  D_1  S_1  
     e( 24 - 24) =     14.41086  eV     1   --> A_1  D_1  S_1  

 **************************************************************************

 **************************************************************************

                    xk=(   0.15000,   0.15000,   0.00000  )

     Band symmetry, C_2v (mm2)  point group:

     e(  1 -  1) =    -46.01377  eV     1   --> A_1  D_1  S_1  
     e(  2 -  2) =    -22.75813  eV     1   --> A_1  D_1  S_1  
     e(  3 -  3) =    -22.62319  eV     1   --> B_1  D_3  S_3  
     e(  4 -  4) =    -22.60682  eV     1   --> B_2  D_4  S_4  
     e(  5 -  5) =    -22.58588  eV     1   --> A_1  D_1  S_1  
     e(  6 -  6) =     -7.39543  eV     1   --> A_1  D_1  S_1  
     e(  7 -  7) =     -6.40927  eV     1   --> B_1  D_3  S_3  
     e(  8 -  8) =     -6.33417  eV     1   --> A_1  D_1  S_1  
     e(  9 -  9) =     -4.74699  eV     1   --> B_2  D_4  S_4  
     e( 10 - 10) =     -4.66431  eV     1   --> B_1  D_3  S_3  
     e( 11 - 11) =     -4.55054  eV     1   --> A_1  D_1  S_1  
     e( 12 - 12) =      6.44255  eV     1   --> A_1  D_1  S_1  
     e( 13 - 13) =      6.78559  eV     1   --> B_1  D_3  S_3  
     e( 14 - 14) =      6.89688  eV     1   --> B_2  D_4  S_4  
     e( 15 - 15) =      7.67625  eV     1   --> A_1  D_1  S_1  
     e( 16 - 16) =      8.04584  eV     1   --> A_2  D_2  S_2  
     e( 17 - 17) =      8.56726  eV     1   --> B_1  D_3  S_3  
     e( 18 - 18) =      8.57944  eV     1   --> A_1  D_1  S_1  
     e( 19 - 19) =      8.96908  eV     1   --> B_1  D_3  S_3  
     e( 20 - 20) =      9.09985  eV     1   --> B_2  D_4  S_4  
     e( 21 - 21) =     12.00864  eV     1   --> B_2  D_4  S_4  
     e( 22 - 22) =     12.12973  eV     1   --> A_2  D_2  S_2  
     e( 23 - 23) =     12.31770  eV     1   --> A_1  D_1  S_1  
     e( 24 - 24) =     14.49234  eV     1   --> A_1  D_1  S_1  

 **************************************************************************

 **************************************************************************

                    xk=(   0.17500,   0.17500,   0.00000  )

     Band symmetry, C_2v (mm2)  point group:

     e(  1 -  1) =    -46.01355  eV     1   --> A_1  D_1  S_1  
     e(  2 -  2) =    -22.76274  eV     1   --> A_1  D_1  S_1  
     e(  3 -  3) =    -22.62805  eV     1   --> B_1  D_3  S_3  
     e(  4 -  4) =    -22.60638  eV     1   --> B_2  D_4  S_4  
     e(  5 -  5) =    -22.58276  eV     1   --> A_1  D_1  S_1  
     e(  6 -  6) =     -7.38913  eV     1   --> A_1  D_1  S_1  
     e(  7 -  7) =     -6.42228  eV     1   --> B_1  D_3  S_3  
     e(  8 -  8) =     -6.31508  eV     1   --> A_1  D_1  S_1  
     e(  9 -  9) =     -4.73974  eV     1   --> B_2  D_4  S_4  
     e( 10 - 10) =     -4.63121  eV     1   --> B_1  D_3  S_3  
     e( 11 - 11) =     -4.49999  eV     1   --> A_1  D_1  S_1  
     e( 12 - 12) =      6.30259  eV     1   --> A_1  D_1  S_1  
     e( 13 - 13) =      6.71154  eV     1   --> B_1  D_3  S_3  
     e( 14 - 14) =      6.88599  eV     1   --> B_2  D_4  S_4  
     e( 15 - 15) =      7.42860  eV     1   --> A_1  D_1  S_1  
     e( 16 - 16) =      7.90811  eV     1   --> A_2  D_2  S_2  
     e( 17 - 17) =      8.40077  eV     1   --> A_1  D_1  S_1  
     e( 18 - 18) =      8.54414  eV     1   --> B_1  D_3  S_3  
     e( 19 - 19) =      8.91822  eV     1   --> B_1  D_3  S_3  
     e( 20 - 20) =      9.00413  eV     1   --> B_2  D_4  S_4  
     e( 21 - 21) =     12.14933  eV     1   --> B_2  D_4  S_4  
     e( 22 - 22) =     12.28878  eV     1   --> A_2  D_2  S_2  
     e( 23 - 23) =     12.49771  eV     1   --> A_1  D_1  S_1  
     e( 24 - 24) =     14.57604  eV     1   --> A_1  D_1  S_1  

 **************************************************************************

 **************************************************************************

                    xk=(   0.20000,   0.20000,   0.00000  )

     Band symmetry, C_2v (mm2)  point group:

     e(  1 -  1) =    -46.01331  eV     1   --> A_1  D_1  S_1  
     e(  2 -  2) =    -22.76613  eV     1   --> A_1  D_1  S_1  
     e(  3 -  3) =    -22.63332  eV     1   --> B_1  D_3  S_3  
     e(  4 -  4) =    -22.60591  eV     1   --> B_2  D_4  S_4  
     e(  5 -  5) =    -22.58105  eV     1   --> A_1  D_1  S_1  
     e(  6 -  6) =     -7.37792  eV     1   --> A_1  D_1  S_1  
     e(  7 -  7) =     -6.43583  eV     1   --> B_1  D_3  S_3  
     e(  8 -  8) =     -6.29275  eV     1   --> A_1  D_1  S_1  
     e(  9 -  9) =     -4.73175  eV     1   --> B_2  D_4  S_4  
     e( 10 - 10) =     -4.59565  eV     1   --> B_1  D_3  S_3  
     e( 11 - 11) =     -4.45435  eV     1   --> A_1  D_1  S_1  
     e( 12 - 12) =      6.15915  eV     1   --> A_1  D_1  S_1  
     e( 13 - 13) =      6.61933  eV     1   --> B_1  D_3  S_3  
     e( 14 - 14) =      6.87499  eV     1   --> B_2  D_4  S_4  
     e( 15 - 15) =      7.17165  eV     1   --> A_1  D_1  S_1  
     e( 16 - 16) =      7.76998  eV     1   --> A_2  D_2  S_2  
     e( 17 - 17) =      8.24426  eV     1   --> A_1  D_1  S_1  
     e( 18 - 18) =      8.49833  eV     1   --> B_1  D_3  S_3  
     e( 19 - 19) =      8.90389  eV     1   --> B_2  D_4  S_4  
     e( 20 - 20) =      8.91524  eV     1   --> B_1  D_3  S_3  
     e( 21 - 21) =     12.29793  eV     1   --> B_2  D_4  S_4  
     e( 22 - 22) =     12.44916  eV     1   --> A_2  D_2  S_2  
     e( 23 - 23) =     12.67558  eV     1   --> A_1  D_1  S_1  
     e( 24 - 24) =     14.65906  eV     1   --> A_1  D_1  S_1  

 **************************************************************************

 **************************************************************************

                    xk=(   0.22500,   0.22500,   0.00000  )

     Band symmetry, C_2v (mm2)  point group:

     e(  1 -  1) =    -46.01306  eV     1   --> A_1  D_1  S_1  
     e(  2 -  2) =    -22.76806  eV     1   --> A_1  D_1  S_1  
     e(  3 -  3) =    -22.63885  eV     1   --> B_1  D_3  S_3  
     e(  4 -  4) =    -22.60542  eV     1   --> B_2  D_4  S_4  
     e(  5 -  5) =    -22.58097  eV     1   --> A_1  D_1  S_1  
     e(  6 -  6) =     -7.36038  eV     1   --> A_1  D_1  S_1  
     e(  7 -  7) =     -6.44950  eV     1   --> B_1  D_3  S_3  
     e(  8 -  8) =     -6.26936  eV     1   --> A_1  D_1  S_1  
     e(  9 -  9) =     -4.72320  eV     1   --> B_2  D_4  S_4  
     e( 10 - 10) =     -4.55851  eV     1   --> B_1  D_3  S_3  
     e( 11 - 11) =     -4.41542  eV     1   --> A_1  D_1  S_1  
     e( 12 - 12) =      6.01572  eV     1   --> A_1  D_1  S_1  
     e( 13 - 13) =      6.51106  eV     1   --> B_1  D_3  S_3  
     e( 14 - 14) =      6.86432  eV     1   --> B_2  D_4  S_4  
     e( 15 - 15) =      6.91070  eV     1   --> A_1  D_1  S_1  
     e( 16 - 16) =      7.63482  eV     1   --> A_2  D_2  S_2  
     e( 17 - 17) =      8.11660  eV     1   --> A_1  D_1  S_1  
     e( 18 - 18) =      8.44053  eV     1   --> B_1  D_3  S_3  
     e( 19 - 19) =      8.80131  eV     1   --> B_2  D_4  S_4  
     e( 20 - 20) =      8.95169  eV     1   --> B_1  D_3  S_3  
     e( 21 - 21) =     12.45100  eV     1   --> B_2  D_4  S_4  
     e( 22 - 22) =     12.60681  eV     1   --> A_2  D_2  S_2  
     e( 23 - 23) =     12.84972  eV     1   --> A_1  D_1  S_1  
     e( 24 - 24) =     14.73908  eV     1   --> A_1  D_1  S_1  

 **************************************************************************

 **************************************************************************

                    xk=(   0.25000,   0.25000,   0.00000  )

     Band symmetry, C_2v (mm2)  point group:

     e(  1 -  1) =    -46.01281  eV     1   --> A_1  D_1  S_1  
     e(  2 -  2) =    -22.76833  eV     1   --> A_1  D_1  S_1  
     e(  3 -  3) =    -22.64453  eV     1   --> B_1  D_3  S_3  
     e(  4 -  4) =    -22.60491  eV     1   --> B_2  D_4  S_4  
     e(  5 -  5) =    -22.58268  eV     1   --> A_1  D_1  S_1  
     e(  6 -  6) =     -7.33526  eV     1   --> A_1  D_1  S_1  
     e(  7 -  7) =     -6.46297  eV     1   --> B_1  D_3  S_3  
     e(  8 -  8) =     -6.24766  eV     1   --> A_1  D_1  S_1  
     e(  9 -  9) =     -4.71427  eV     1   --> B_2  D_4  S_4  
     e( 10 - 10) =     -4.52066  eV     1   --> B_1  D_3  S_3  
     e( 11 - 11) =     -4.38397  eV     1   --> A_1  D_1  S_1  
     e( 12 - 12) =      5.87498  eV     1   --> A_1  D_1  S_1  
     e( 13 - 13) =      6.39065  eV     1   --> B_1  D_3  S_3  
     e( 14 - 14) =      6.65108  eV     1   --> A_1  D_1  S_1  
     e( 15 - 15) =      6.85440  eV     1   --> B_2  D_4  S_4  
     e( 16 - 16) =      7.50525  eV     1   --> A_2  D_2  S_2  
     e( 17 - 17) =      8.02170  eV     1   --> A_1  D_1  S_1  
     e( 18 - 18) =      8.38344  eV     1   --> B_1  D_3  S_3  
     e( 19 - 19) =      8.69845  eV     1   --> B_2  D_4  S_4  
     e( 20 - 20) =      9.01385  eV     1   --> B_1  D_3  S_3  
     e( 21 - 21) =     12.60524  eV     1   --> B_2  D_4  S_4  
     e( 22 - 22) =     12.75842  eV     1   --> A_2  D_2  S_2  
     e( 23 - 23) =     13.01887  eV     1   --> A_1  D_1  S_1  
     e( 24 - 24) =     14.81432  eV     1   --> A_1  D_1  S_1  

 **************************************************************************

 **************************************************************************

                    xk=(   0.27500,   0.27500,   0.00000  )

     Band symmetry, C_2v (mm2)  point group:

     e(  1 -  1) =    -46.01255  eV     1   --> A_1  D_1  S_1  
     e(  2 -  2) =    -22.76684  eV     1   --> A_1  D_1  S_1  
     e(  3 -  3) =    -22.65019  eV     1   --> B_1  D_3  S_3  
     e(  4 -  4) =    -22.60441  eV     1   --> B_2  D_4  S_4  
     e(  5 -  5) =    -22.58625  eV     1   --> A_1  D_1  S_1  
     e(  6 -  6) =     -7.30160  eV     1   --> A_1  D_1  S_1  
     e(  7 -  7) =     -6.47590  eV     1   --> B_1  D_3  S_3  
     e(  8 -  8) =     -6.23080  eV     1   --> A_1  D_1  S_1  
     e(  9 -  9) =     -4.70516  eV     1   --> B_2  D_4  S_4  
     e( 10 - 10) =     -4.48298  eV     1   --> B_1  D_3  S_3  
     e( 11 - 11) =     -4.35974  eV     1   --> A_1  D_1  S_1  
     e( 12 - 12) =      5.73905  eV     1   --> A_1  D_1  S_1  
     e( 13 - 13) =      6.26315  eV     1   --> B_1  D_3  S_3  
     e( 14 - 14) =      6.39815  eV     1   --> A_1  D_1  S_1  
     e( 15 - 15) =      6.84557  eV     1   --> B_2  D_4  S_4  
     e( 16 - 16) =      7.38338  eV     1   --> A_2  D_2  S_2  
     e( 17 - 17) =      7.96078  eV     1   --> A_1  D_1  S_1  
     e( 18 - 18) =      8.33333  eV     1   --> B_1  D_3  S_3  
     e( 19 - 19) =      8.59727  eV     1   --> B_2  D_4  S_4  
     e( 20 - 20) =      9.09198  eV     1   --> B_1  D_3  S_3  
     e( 21 - 21) =     12.75742  eV     1   --> B_2  D_4  S_4  
     e( 22 - 22) =     12.90136  eV     1   --> A_2  D_2  S_2  
     e( 23 - 23) =     13.18160  eV     1   --> A_1  D_1  S_1  
     e( 24 - 24) =     14.88346  eV     1   --> A_1  D_1  S_1  

 **************************************************************************

 **************************************************************************

                    xk=(   0.30000,   0.30000,   0.00000  )

     Band symmetry, C_2v (mm2)  point group:

     e(  1 -  1) =    -46.01230  eV     1   --> A_1  D_1  S_1  
     e(  2 -  2) =    -22.76354  eV     1   --> A_1  D_1  S_1  
     e(  3 -  3) =    -22.65571  eV     1   --> B_1  D_3  S_3  
     e(  4 -  4) =    -22.60392  eV     1   --> B_2  D_4  S_4  
     e(  5 -  5) =    -22.59165  eV     1   --> A_1  D_1  S_1  
     e(  6 -  6) =     -7.25878  eV     1   --> A_1  D_1  S_1  
     e(  7 -  7) =     -6.48805  eV     1   --> B_1  D_3  S_3  
     e(  8 -  8) =     -6.22201  eV     1   --> A_1  D_1  S_1  
     e(  9 -  9) =     -4.69612  eV     1   --> B_2  D_4  S_4  
     e( 10 - 10) =     -4.44634  eV     1   --> B_1  D_3  S_3  
     e( 11 - 11) =     -4.34163  eV     1   --> A_1  D_1  S_1  
     e( 12 - 12) =      5.60969  eV     1   --> A_1  D_1  S_1  
     e( 13 - 13) =      6.13394  eV     1   --> B_1  D_3  S_3  
     e( 14 - 14) =      6.15718  eV     1   --> A_1  D_1  S_1  
     e( 15 - 15) =      6.83806  eV     1   --> B_2  D_4  S_4  
     e( 16 - 16) =      7.27088  eV     1   --> A_2  D_2  S_2  
     e( 17 - 17) =      7.93254  eV     1   --> A_1  D_1  S_1  
     e( 18 - 18) =      8.29194  eV     1   --> B_1  D_3  S_3  
     e( 19 - 19) =      8.49968  eV     1   --> B_2  D_4  S_4  
     e( 20 - 20) =      9.17941  eV     1   --> B_1  D_3  S_3  
     e( 21 - 21) =     12.90437  eV     1   --> B_2  D_4  S_4  
     e( 22 - 22) =     13.03348  eV     1   --> A_2  D_2  S_2  
     e( 23 - 23) =     13.33616  eV     1   --> A_1  D_1  S_1  
     e( 24 - 24) =     14.94560  eV     1   --> A_1  D_1  S_1  

 **************************************************************************

 **************************************************************************

                    xk=(   0.32500,   0.32500,   0.00000  )

     Band symmetry, C_2v (mm2)  point group:

     e(  1 -  1) =    -46.01207  eV     1   --> A_1  D_1  S_1  
     e(  2 -  2) =    -22.75843  eV     1   --> A_1  D_1  S_1  
     e(  3 -  3) =    -22.66096  eV     1   --> B_1  D_3  S_3  
     e(  4 -  4) =    -22.60346  eV     1   --> B_2  D_4  S_4  
     e(  5 -  5) =    -22.59883  eV     1   --> A_1  D_1  S_1  
     e(  6 -  6) =     -7.20662  eV     1   --> A_1  D_1  S_1  
     e(  7 -  7) =     -6.49920  eV     1   --> B_1  D_3  S_3  
     e(  8 -  8) =     -6.22422  eV     1   --> A_1  D_1  S_1  
     e(  9 -  9) =     -4.68738  eV     1   --> B_2  D_4  S_4  
     e( 10 - 10) =     -4.41159  eV     1   --> B_1  D_3  S_3  
     e( 11 - 11) =     -4.32805  eV     1   --> A_1  D_1  S_1  
     e( 12 - 12) =      5.48840  eV     1   --> A_1  D_1  S_1  
     e( 13 - 13) =      5.93332  eV     1   --> A_1  D_1  S_1  
     e( 14 - 14) =      6.00817  eV     1   --> B_1  D_3  S_3  
     e( 15 - 15) =      6.83204  eV     1   --> B_2  D_4  S_4  
     e( 16 - 16) =      7.16906  eV     1   --> A_2  D_2  S_2  
     e( 17 - 17) =      7.93344  eV     1   --> A_1  D_1  S_1  
     e( 18 - 18) =      8.25903  eV     1   --> B_1  D_3  S_3  
     e( 19 - 19) =      8.40757  eV     1   --> B_2  D_4  S_4  
     e( 20 - 20) =      9.27084  eV     1   --> B_1  D_3  S_3  
     e( 21 - 21) =     13.04299  eV     1   --> B_2  D_4  S_4  
     e( 22 - 22) =     13.15309  eV     1   --> A_2  D_2  S_2  
     e( 23 - 23) =     13.48043  eV     1   --> A_1  D_1  S_1  
     e( 24 - 24) =     15.00016  eV     1   --> A_1  D_1  S_1  

 **************************************************************************

 **************************************************************************

                    xk=(   0.35000,   0.35000,   0.00000  )

     Band symmetry, C_2v (mm2)  point group:

     e(  1 -  1) =    -46.01185  eV     1   --> A_1  D_1  S_1  
     e(  2 -  2) =    -22.75158  eV     1   --> A_1  D_1  S_1  
     e(  3 -  3) =    -22.66579  eV     1   --> B_1  D_3  S_3  
     e(  4 -  4) =    -22.60766  eV     1   --> A_1  D_1  S_1  
     e(  5 -  5) =    -22.60304  eV     1   --> B_2  D_4  S_4  
     e(  6 -  6) =     -7.14537  eV     1   --> A_1  D_1  S_1  
     e(  7 -  7) =     -6.50918  eV     1   --> B_1  D_3  S_3  
     e(  8 -  8) =     -6.23971  eV     1   --> A_1  D_1  S_1  
     e(  9 -  9) =     -4.67918  eV     1   --> B_2  D_4  S_4  
     e( 10 - 10) =     -4.37952  eV     1   --> B_1  D_3  S_3  
     e( 11 - 11) =     -4.31732  eV     1   --> A_1  D_1  S_1  
     e( 12 - 12) =      5.37637  eV     1   --> A_1  D_1  S_1  
     e( 13 - 13) =      5.73165  eV     1   --> A_1  D_1  S_1  
     e( 14 - 14) =      5.89041  eV     1   --> B_1  D_3  S_3  
     e( 15 - 15) =      6.82754  eV     1   --> B_2  D_4  S_4  
     e( 16 - 16) =      7.07899  eV     1   --> A_2  D_2  S_2  
     e( 17 - 17) =      7.95795  eV     1   --> A_1  D_1  S_1  
     e( 18 - 18) =      8.23358  eV     1   --> B_1  D_3  S_3  
     e( 19 - 19) =      8.32282  eV     1   --> B_2  D_4  S_4  
     e( 20 - 20) =      9.36155  eV     1   --> B_1  D_3  S_3  
     e( 21 - 21) =     13.17031  eV     1   --> B_2  D_4  S_4  
     e( 22 - 22) =     13.25888  eV     1   --> A_2  D_2  S_2  
     e( 23 - 23) =     13.61200  eV     1   --> A_1  D_1  S_1  
     e( 24 - 24) =     15.04685  eV     1   --> A_1  D_1  S_1  

 **************************************************************************

 **************************************************************************

                    xk=(   0.37500,   0.37500,   0.00000  )

     Band symmetry, C_2v (mm2)  point group:

     e(  1 -  1) =    -46.01165  eV     1   --> A_1  D_1  S_1  
     e(  2 -  2) =    -22.74309  eV     1   --> A_1  D_1  S_1  
     e(  3 -  3) =    -22.67010  eV     1   --> B_1  D_3  S_3  
     e(  4 -  4) =    -22.61796  eV     1   --> A_1  D_1  S_1  
     e(  5 -  5) =    -22.60266  eV     1   --> B_2  D_4  S_4  
     e(  6 -  6) =     -7.07575  eV     1   --> A_1  D_1  S_1  
     e(  7 -  7) =     -6.51782  eV     1   --> B_1  D_3  S_3  
     e(  8 -  8) =     -6.26971  eV     1   --> A_1  D_1  S_1  
     e(  9 -  9) =     -4.67176  eV     1   --> B_2  D_4  S_4  
     e( 10 - 10) =     -4.35090  eV     1   --> B_1  D_3  S_3  
     e( 11 - 11) =     -4.30811  eV     1   --> A_1  D_1  S_1  
     e( 12 - 12) =      5.27442  eV     1   --> A_1  D_1  S_1  
     e( 13 - 13) =      5.55714  eV     1   --> A_1  D_1  S_1  
     e( 14 - 14) =      5.78455  eV     1   --> B_1  D_3  S_3  
     e( 15 - 15) =      6.82446  eV     1   --> B_2  D_4  S_4  
     e( 16 - 16) =      7.00151  eV     1   --> A_2  D_2  S_2  
     e( 17 - 17) =      7.99904  eV     1   --> A_1  D_1  S_1  
     e( 18 - 18) =      8.21441  eV     1   --> B_1  D_3  S_3  
     e( 19 - 19) =      8.24722  eV     1   --> B_2  D_4  S_4  
     e( 20 - 20) =      9.44716  eV     1   --> B_1  D_3  S_3  
     e( 21 - 21) =     13.28352  eV     1   --> B_2  D_4  S_4  
     e( 22 - 22) =     13.34982  eV     1   --> A_2  D_2  S_2  
     e( 23 - 23) =     13.72834  eV     1   --> A_1  D_1  S_1  
     e( 24 - 24) =     15.08563  eV     1   --> A_1  D_1  S_1  

 **************************************************************************

 **************************************************************************

                    xk=(   0.40000,   0.40000,   0.00000  )

     Band symmetry, C_2v (mm2)  point group:

     e(  1 -  1) =    -46.01149  eV     1   --> A_1  D_1  S_1  
     e(  2 -  2) =    -22.73314  eV     1   --> A_1  D_1  S_1  
     e(  3 -  3) =    -22.67377  eV     1   --> B_1  D_3  S_3  
     e(  4 -  4) =    -22.62951  eV     1   --> A_1  D_1  S_1  
     e(  5 -  5) =    -22.60234  eV     1   --> B_2  D_4  S_4  
     e(  6 -  6) =     -6.99906  eV     1   --> A_1  D_1  S_1  
     e(  7 -  7) =     -6.52504  eV     1   --> B_1  D_3  S_3  
     e(  8 -  8) =     -6.31408  eV     1   --> A_1  D_1  S_1  
     e(  9 -  9) =     -4.66534  eV     1   --> B_2  D_4  S_4  
     e( 10 - 10) =     -4.32642  eV     1   --> B_1  D_3  S_3  
     e( 11 - 11) =     -4.29974  eV     1   --> A_1  D_1  S_1  
     e( 12 - 12) =      5.18317  eV     1   --> A_1  D_1  S_1  
     e( 13 - 13) =      5.41437  eV     1   --> A_1  D_1  S_1  
     e( 14 - 14) =      5.69378  eV     1   --> B_1  D_3  S_3  
     e( 15 - 15) =      6.82261  eV     1   --> B_2  D_4  S_4  
     e( 16 - 16) =      6.93729  eV     1   --> A_2  D_2  S_2  
     e( 17 - 17) =      8.04871  eV     1   --> A_1  D_1  S_1  
     e( 18 - 18) =      8.18249  eV     1   --> B_2  D_4  S_4  
     e( 19 - 19) =      8.20038  eV     1   --> B_1  D_3  S_3  
     e( 20 - 20) =      9.52363  eV     1   --> B_1  D_3  S_3  
     e( 21 - 21) =     13.38007  eV     1   --> B_2  D_4  S_4  
     e( 22 - 22) =     13.42512  eV     1   --> A_2  D_2  S_2  
     e( 23 - 23) =     13.82699  eV     1   --> A_1  D_1  S_1  
     e( 24 - 24) =     15.11663  eV     1   --> A_1  D_1  S_1  

 **************************************************************************

 **************************************************************************

                    xk=(   0.42500,   0.42500,   0.00000  )

     Band symmetry, C_2v (mm2)  point group:

     e(  1 -  1) =    -46.01135  eV     1   --> A_1  D_1  S_1  
     e(  2 -  2) =    -22.72190  eV     1   --> A_1  D_1  S_1  
     e(  3 -  3) =    -22.67673  eV     1   --> B_1  D_3  S_3  
     e(  4 -  4) =    -22.64206  eV     1   --> A_1  D_1  S_1  
     e(  5 -  5) =    -22.60208  eV     1   --> B_2  D_4  S_4  
     e(  6 -  6) =     -6.91741  eV     1   --> A_1  D_1  S_1  
     e(  7 -  7) =     -6.53074  eV     1   --> B_1  D_3  S_3  
     e(  8 -  8) =     -6.37116  eV     1   --> A_1  D_1  S_1  
     e(  9 -  9) =     -4.66013  eV     1   --> B_2  D_4  S_4  
     e( 10 - 10) =     -4.30669  eV     1   --> B_1  D_3  S_3  
     e( 11 - 11) =     -4.29219  eV     1   --> A_1  D_1  S_1  
     e( 12 - 12) =      5.10421  eV     1   --> A_1  D_1  S_1  
     e( 13 - 13) =      5.30632  eV     1   --> A_1  D_1  S_1  
     e( 14 - 14) =      5.62064  eV     1   --> B_1  D_3  S_3  
     e( 15 - 15) =      6.82169  eV     1   --> B_2  D_4  S_4  
     e( 16 - 16) =      6.88684  eV     1   --> A_2  D_2  S_2  
     e( 17 - 17) =      8.09863  eV     1   --> A_1  D_1  S_1  
     e( 18 - 18) =      8.13023  eV     1   --> B_2  D_4  S_4  
     e( 19 - 19) =      8.19052  eV     1   --> B_1  D_3  S_3  
     e( 20 - 20) =      9.58733  eV     1   --> B_1  D_3  S_3  
     e( 21 - 21) =     13.45768  eV     1   --> B_2  D_4  S_4  
     e( 22 - 22) =     13.48423  eV     1   --> A_2  D_2  S_2  
     e( 23 - 23) =     13.90581  eV     1   --> A_1  D_1  S_1  
     e( 24 - 24) =     15.14015  eV     1   --> A_1  D_1  S_1  

 **************************************************************************

 **************************************************************************

                    xk=(   0.45000,   0.45000,   0.00000  )

     Band symmetry, C_2v (mm2)  point group:

     e(  1 -  1) =    -46.01126  eV     1   --> A_1  D_1  S_1  
     e(  2 -  2) =    -22.70964  eV     1   --> A_1  D_1  S_1  
     e(  3 -  3) =    -22.67889  eV     1   --> B_1  D_3  S_3  
     e(  4 -  4) =    -22.65530  eV     1   --> A_1  D_1  S_1  
     e(  5 -  5) =    -22.60189  eV     1   --> B_2  D_4  S_4  
     e(  6 -  6) =     -6.83439  eV     1   --> A_1  D_1  S_1  
     e(  7 -  7) =     -6.53485  eV     1   --> B_1  D_3  S_3  
     e(  8 -  8) =     -6.43713  eV     1   --> A_1  D_1  S_1  
     e(  9 -  9) =     -4.65627  eV     1   --> B_2  D_4  S_4  
     e( 10 - 10) =     -4.29222  eV     1   --> B_1  D_3  S_3  
     e( 11 - 11) =     -4.28599  eV     1   --> A_1  D_1  S_1  
     e( 12 - 12) =      5.04152  eV     1   --> A_1  D_1  S_1  
     e( 13 - 13) =      5.23266  eV     1   --> A_1  D_1  S_1  
     e( 14 - 14) =      5.56705  eV     1   --> B_1  D_3  S_3  
     e( 15 - 15) =      6.82137  eV     1   --> B_2  D_4  S_4  
     e( 16 - 16) =      6.85055  eV     1   --> A_2  D_2  S_2  
     e( 17 - 17) =      8.09181  eV     1   --> B_2  D_4  S_4  
     e( 18 - 18) =      8.14098  eV     1   --> A_1  D_1  S_1  
     e( 19 - 19) =      8.18404  eV     1   --> B_1  D_3  S_3  
     e( 20 - 20) =      9.63520  eV     1   --> B_1  D_3  S_3  
     e( 21 - 21) =     13.51453  eV     1   --> B_2  D_4  S_4  
     e( 22 - 22) =     13.52672  eV     1   --> A_2  D_2  S_2  
     e( 23 - 23) =     13.96314  eV     1   --> A_1  D_1  S_1  
     e( 24 - 24) =     15.15655  eV     1   --> A_1  D_1  S_1  

 **************************************************************************

 **************************************************************************

                    xk=(   0.47500,   0.47500,   0.00000  )

     Band symmetry, C_2v (mm2)  point group:

     e(  1 -  1) =    -46.01120  eV     1   --> A_1  D_1  S_1  
     e(  2 -  2) =    -22.69664  eV     1   --> A_1  D_1  S_1  
     e(  3 -  3) =    -22.68021  eV     1   --> B_1  D_3  S_3  
     e(  4 -  4) =    -22.66890  eV     1   --> A_1  D_1  S_1  
     e(  5 -  5) =    -22.60178  eV     1   --> B_2  D_4  S_4  
     e(  6 -  6) =     -6.75862  eV     1   --> A_1  D_1  S_1  
     e(  7 -  7) =     -6.53733  eV     1   --> B_1  D_3  S_3  
     e(  8 -  8) =     -6.50296  eV     1   --> A_1  D_1  S_1  
     e(  9 -  9) =     -4.65391  eV     1   --> B_2  D_4  S_4  
     e( 10 - 10) =     -4.28339  eV     1   --> B_1  D_3  S_3  
     e( 11 - 11) =     -4.28187  eV     1   --> A_1  D_1  S_1  
     e( 12 - 12) =      5.00082  eV     1   --> A_1  D_1  S_1  
     e( 13 - 13) =      5.19042  eV     1   --> A_1  D_1  S_1  
     e( 14 - 14) =      5.53437  eV     1   --> B_1  D_3  S_3  
     e( 15 - 15) =      6.82134  eV     1   --> B_2  D_4  S_4  
     e( 16 - 16) =      6.82867  eV     1   --> A_2  D_2  S_2  
     e( 17 - 17) =      8.06829  eV     1   --> B_2  D_4  S_4  
     e( 18 - 18) =      8.16928  eV     1   --> A_1  D_1  S_1  
     e( 19 - 19) =      8.18039  eV     1   --> B_1  D_3  S_3  
     e( 20 - 20) =      9.66491  eV     1   --> B_1  D_3  S_3  
     e( 21 - 21) =     13.54921  eV     1   --> B_2  D_4  S_4  
     e( 22 - 22) =     13.55231  eV     1   --> A_2  D_2  S_2  
     e( 23 - 23) =     13.99792  eV     1   --> A_1  D_1  S_1  
     e( 24 - 24) =     15.16620  eV     1   --> A_1  D_1  S_1  

 **************************************************************************

 **************************************************************************

                    xk=(   0.50000,   0.50000,   0.00000  )

     point group D_4h(4/mmm)
     there are 10 classes
     the character table:

       E     2C4   C2    2C2'  2C2'' i     2S4   s_h   2s_v  2s_d 
A_1g   1.00  1.00  1.00  1.00  1.00  1.00  1.00  1.00  1.00  1.00
A_2g   1.00  1.00  1.00 -1.00 -1.00  1.00  1.00  1.00 -1.00 -1.00
B_1g   1.00 -1.00  1.00  1.00 -1.00  1.00 -1.00  1.00  1.00 -1.00
B_2g   1.00 -1.00  1.00 -1.00  1.00  1.00 -1.00  1.00 -1.00  1.00
E_g    2.00  0.00 -2.00  0.00  0.00  2.00  0.00 -2.00  0.00  0.00
A_1u   1.00  1.00  1.00  1.00  1.00 -1.00 -1.00 -1.00 -1.00 -1.00
A_2u   1.00  1.00  1.00 -1.00 -1.00 -1.00 -1.00 -1.00  1.00  1.00
B_1u   1.00 -1.00  1.00  1.00 -1.00 -1.00  1.00 -1.00 -1.00  1.00
B_2u   1.00 -1.00  1.00 -1.00  1.00 -1.00  1.00 -1.00  1.00 -1.00
E_u    2.00  0.00 -2.00  0.00  0.00 -2.00  0.00  2.00  0.00  0.00

     the symmetry operations in each class and the name of the first element:

     E        1
                                                                 
     2C4      7    8
                                                                 
     C2       2
                                                                 
     2C2'     3    4
                                                                 
     2C2''    5    6
                                                                 
     i        9
                                                                 
     2S4     15   16
                                                                 
     s_h     10
                                                                 
     2s_v    11   12
                                                                 
     2s_d    13   14
                                                                 

     Band symmetry, D_4h(4/mmm) point group:

     e(  1 -  1) =    -46.01118  eV     1   --> B_2g X_3  M_3  
     e(  2 -  2) =    -22.68509  eV     1   --> A_1g X_1  M_1  
     e(  3 -  4) =    -22.68066  eV     2   --> E_u  X_5' M_5' 
     e(  5 -  5) =    -22.60175  eV     1   --> B_1u X_2' M_2' 
     e(  6 -  6) =     -6.72016  eV     1   --> B_2g X_3  M_3  
     e(  7 -  8) =     -6.53816  eV     2   --> E_u  X_5' M_5' 
     e(  9 -  9) =     -4.65312  eV     1   --> A_2u X_4' M_4' 
     e( 10 - 11) =     -4.28042  eV     2   --> E_u  X_5' M_5' 
     e( 12 - 12) =      4.98670  eV     1   --> A_1g X_1  M_1  
     e( 13 - 13) =      5.17670  eV     1   --> B_2g X_3  M_3  
     e( 14 - 14) =      5.52338  eV     1   --> A_2g X_4  M_4  
     e( 15 - 16) =      6.82135  eV     2   --> E_g  X_5  M_5  
     e( 17 - 17) =      8.06037  eV     1   --> B_1u X_2' M_2' 
     e( 18 - 19) =      8.17921  eV     2   --> E_u  X_5' M_5' 
     e( 20 - 20) =      9.67498  eV     1   --> B_1g X_2  M_2  
     e( 21 - 22) =     13.56086  eV     2   --> E_g  X_5  M_5  
     e( 23 - 23) =     14.00957  eV     1   --> A_1g X_1  M_1  
     e( 24 - 24) =     15.16939  eV     1   --> B_2g X_3  M_3  

 **************************************************************************

 **************************************************************************

                    xk=(   0.47500,   0.50000,   0.00000  )

     point group C_2v (mm2) 
     there are  4 classes
     the character table:

       E     C2    s_v   s_v' 
A_1    1.00  1.00  1.00  1.00
A_2    1.00  1.00 -1.00 -1.00
B_1    1.00 -1.00  1.00 -1.00
B_2    1.00 -1.00 -1.00  1.00

     the symmetry operations in each class and the name of the first element:

     E        1
                                                                 
     C2       2
                                                                 
     s_v      4
                                                                 
     s_v'     3
                                                                 

     Band symmetry, C_2v (mm2)  point group:

     e(  1 -  1) =    -46.01119  eV     1   --> B_2  D_4  S_4  
     e(  2 -  2) =    -22.69287  eV     1   --> A_1  D_1  S_1  
     e(  3 -  3) =    -22.68019  eV     1   --> B_2  D_4  S_4  
     e(  4 -  4) =    -22.67301  eV     1   --> A_1  D_1  S_1  
     e(  5 -  5) =    -22.60176  eV     1   --> A_2  D_2  S_2  
     e(  6 -  6) =     -6.74126  eV     1   --> B_2  D_4  S_4  
     e(  7 -  7) =     -6.53551  eV     1   --> A_1  D_1  S_1  
     e(  8 -  8) =     -6.52093  eV     1   --> B_2  D_4  S_4  
     e(  9 -  9) =     -4.65351  eV     1   --> B_1  D_3  S_3  
     e( 10 - 10) =     -4.28254  eV     1   --> A_1  D_1  S_1  
     e( 11 - 11) =     -4.28051  eV     1   --> B_2  D_4  S_4  
     e( 12 - 12) =      4.99382  eV     1   --> A_1  D_1  S_1  
     e( 13 - 13) =      5.18340  eV     1   --> B_2  D_4  S_4  
     e( 14 - 14) =      5.52898  eV     1   --> B_2  D_4  S_4  
     e( 15 - 15) =      6.82196  eV     1   --> A_2  D_2  S_2  
     e( 16 - 16) =      6.82439  eV     1   --> B_1  D_3  S_3  
     e( 17 - 17) =      8.06434  eV     1   --> A_2  D_2  S_2  
     e( 18 - 18) =      8.17509  eV     1   --> A_1  D_1  S_1  
     e( 19 - 19) =      8.17891  eV     1   --> B_2  D_4  S_4  
     e( 20 - 20) =      9.66991  eV     1   --> A_1  D_1  S_1  
     e( 21 - 21) =     13.55084  eV     1   --> A_2  D_2  S_2  
     e( 22 - 22) =     13.56078  eV     1   --> B_1  D_3  S_3  
     e( 23 - 23) =     14.00377  eV     1   --> A_1  D_1  S_1  
     e( 24 - 24) =     15.16779  eV     1   --> B_2  D_4  S_4  

 **************************************************************************

 **************************************************************************

                    xk=(   0.45000,   0.50000,   0.00000  )

     Band symmetry, C_2v (mm2)  point group:

     e(  1 -  1) =    -46.01122  eV     1   --> B_2  D_4  S_4  
     e(  2 -  2) =    -22.70257  eV     1   --> A_1  D_1  S_1  
     e(  3 -  3) =    -22.67882  eV     1   --> B_2  D_4  S_4  
     e(  4 -  4) =    -22.66372  eV     1   --> A_1  D_1  S_1  
     e(  5 -  5) =    -22.60182  eV     1   --> A_2  D_2  S_2  
     e(  6 -  6) =     -6.79019  eV     1   --> B_2  D_4  S_4  
     e(  7 -  7) =     -6.52757  eV     1   --> A_1  D_1  S_1  
     e(  8 -  8) =     -6.48356  eV     1   --> B_2  D_4  S_4  
     e(  9 -  9) =     -4.65470  eV     1   --> B_1  D_3  S_3  
     e( 10 - 10) =     -4.28888  eV     1   --> A_1  D_1  S_1  
     e( 11 - 11) =     -4.28066  eV     1   --> B_2  D_4  S_4  
     e( 12 - 12) =      5.01516  eV     1   --> A_1  D_1  S_1  
     e( 13 - 13) =      5.20206  eV     1   --> B_2  D_4  S_4  
     e( 14 - 14) =      5.54684  eV     1   --> B_2  D_4  S_4  
     e( 15 - 15) =      6.82375  eV     1   --> A_2  D_2  S_2  
     e( 16 - 16) =      6.83342  eV     1   --> B_1  D_3  S_3  
     e( 17 - 17) =      8.07625  eV     1   --> A_2  D_2  S_2  
     e( 18 - 18) =      8.16281  eV     1   --> A_1  D_1  S_1  
     e( 19 - 19) =      8.17816  eV     1   --> B_2  D_4  S_4  
     e( 20 - 20) =      9.65461  eV     1   --> A_1  D_1  S_1  
     e( 21 - 21) =     13.52100  eV     1   --> A_2  D_2  S_2  
     e( 22 - 22) =     13.56055  eV     1   --> B_1  D_3  S_3  
     e( 23 - 23) =     13.98674  eV     1   --> A_1  D_1  S_1  
     e( 24 - 24) =     15.16293  eV     1   --> B_2  D_4  S_4  

 **************************************************************************

 **************************************************************************

                    xk=(   0.42500,   0.50000,   0.00000  )

     Band symmetry, C_2v (mm2)  point group:

     e(  1 -  1) =    -46.01127  eV     1   --> B_2  D_4  S_4  
     e(  2 -  2) =    -22.71236  eV     1   --> A_1  D_1  S_1  
     e(  3 -  3) =    -22.67657  eV     1   --> B_2  D_4  S_4  
     e(  4 -  4) =    -22.65459  eV     1   --> A_1  D_1  S_1  
     e(  5 -  5) =    -22.60191  eV     1   --> A_2  D_2  S_2  
     e(  6 -  6) =     -6.85096  eV     1   --> B_2  D_4  S_4  
     e(  7 -  7) =     -6.51447  eV     1   --> A_1  D_1  S_1  
     e(  8 -  8) =     -6.44196  eV     1   --> B_2  D_4  S_4  
     e(  9 -  9) =     -4.65664  eV     1   --> B_1  D_3  S_3  
     e( 10 - 10) =     -4.29936  eV     1   --> A_1  D_1  S_1  
     e( 11 - 11) =     -4.28057  eV     1   --> B_2  D_4  S_4  
     e( 12 - 12) =      5.05060  eV     1   --> A_1  D_1  S_1  
     e( 13 - 13) =      5.22864  eV     1   --> B_2  D_4  S_4  
     e( 14 - 14) =      5.58006  eV     1   --> B_2  D_4  S_4  
     e( 15 - 15) =      6.82661  eV     1   --> A_2  D_2  S_2  
     e( 16 - 16) =      6.84827  eV     1   --> B_1  D_3  S_3  
     e( 17 - 17) =      8.09608  eV     1   --> A_2  D_2  S_2  
     e( 18 - 18) =      8.14267  eV     1   --> A_1  D_1  S_1  
     e( 19 - 19) =      8.17738  eV     1   --> B_2  D_4  S_4  
     e( 20 - 20) =      9.62875  eV     1   --> A_1  D_1  S_1  
     e( 21 - 21) =     13.47199  eV     1   --> A_2  D_2  S_2  
     e( 22 - 22) =     13.56016  eV     1   --> B_1  D_3  S_3  
     e( 23 - 23) =     13.95957  eV     1   --> A_1  D_1  S_1  
     e( 24 - 24) =     15.15456  eV     1   --> B_2  D_4  S_4  

 **************************************************************************

 **************************************************************************

                    xk=(   0.40000,   0.50000,   0.00000  )

     Band symmetry, C_2v (mm2)  point group:

     e(  1 -  1) =    -46.01133  eV     1   --> B_2  D_4  S_4  
     e(  2 -  2) =    -22.72212  eV     1   --> A_1  D_1  S_1  
     e(  3 -  3) =    -22.67350  eV     1   --> B_2  D_4  S_4  
     e(  4 -  4) =    -22.64575  eV     1   --> A_1  D_1  S_1  
     e(  5 -  5) =    -22.60204  eV     1   --> A_2  D_2  S_2  
     e(  6 -  6) =     -6.91701  eV     1   --> B_2  D_4  S_4  
     e(  7 -  7) =     -6.49638  eV     1   --> A_1  D_1  S_1  
     e(  8 -  8) =     -6.40249  eV     1   --> B_2  D_4  S_4  
     e(  9 -  9) =     -4.65929  eV     1   --> B_1  D_3  S_3  
     e( 10 - 10) =     -4.31384  eV     1   --> A_1  D_1  S_1  
     e( 11 - 11) =     -4.27976  eV     1   --> B_2  D_4  S_4  
     e( 12 - 12) =      5.09992  eV     1   --> A_1  D_1  S_1  
     e( 13 - 13) =      5.25746  eV     1   --> B_2  D_4  S_4  
     e( 14 - 14) =      5.63264  eV     1   --> B_2  D_4  S_4  
     e( 15 - 15) =      6.83041  eV     1   --> A_2  D_2  S_2  
     e( 16 - 16) =      6.86864  eV     1   --> B_1  D_3  S_3  
     e( 17 - 17) =      8.11516  eV     1   --> A_1  D_1  S_1  
     e( 18 - 18) =      8.12381  eV     1   --> A_2  D_2  S_2  
     e( 19 - 19) =      8.17732  eV     1   --> B_2  D_4  S_4  
     e( 20 - 20) =      9.59184  eV     1   --> A_1  D_1  S_1  
     e( 21 - 21) =     13.40484  eV     1   --> A_2  D_2  S_2  
     e( 22 - 22) =     13.55965  eV     1   --> B_1  D_3  S_3  
     e( 23 - 23) =     13.92395  eV     1   --> A_1  D_1  S_1  
     e( 24 - 24) =     15.14227  eV     1   --> B_2  D_4  S_4  

 **************************************************************************

 **************************************************************************

                    xk=(   0.37500,   0.50000,   0.00000  )

     Band symmetry, C_2v (mm2)  point group:

     e(  1 -  1) =    -46.01142  eV     1   --> B_2  D_4  S_4  
     e(  2 -  2) =    -22.73177  eV     1   --> A_1  D_1  S_1  
     e(  3 -  3) =    -22.66967  eV     1   --> B_2  D_4  S_4  
     e(  4 -  4) =    -22.63724  eV     1   --> A_1  D_1  S_1  
     e(  5 -  5) =    -22.60219  eV     1   --> A_2  D_2  S_2  
     e(  6 -  6) =     -6.98553  eV     1   --> B_2  D_4  S_4  
     e(  7 -  7) =     -6.47358  eV     1   --> A_1  D_1  S_1  
     e(  8 -  8) =     -6.36763  eV     1   --> B_2  D_4  S_4  
     e(  9 -  9) =     -4.66257  eV     1   --> B_1  D_3  S_3  
     e( 10 - 10) =     -4.33211  eV     1   --> A_1  D_1  S_1  
     e( 11 - 11) =     -4.27768  eV     1   --> B_2  D_4  S_4  
     e( 12 - 12) =      5.16287  eV     1   --> A_1  D_1  S_1  
     e( 13 - 13) =      5.28353  eV     1   --> B_2  D_4  S_4  
     e( 14 - 14) =      5.70727  eV     1   --> B_2  D_4  S_4  
     e( 15 - 15) =      6.83495  eV     1   --> A_2  D_2  S_2  
     e( 16 - 16) =      6.89410  eV     1   --> B_1  D_3  S_3  
     e( 17 - 17) =      8.08096  eV     1   --> A_1  D_1  S_1  
     e( 18 - 18) =      8.15937  eV     1   --> A_2  D_2  S_2  
     e( 19 - 19) =      8.17906  eV     1   --> B_2  D_4  S_4  
     e( 20 - 20) =      9.54329  eV     1   --> A_1  D_1  S_1  
     e( 21 - 21) =     13.32095  eV     1   --> A_2  D_2  S_2  
     e( 22 - 22) =     13.55903  eV     1   --> B_1  D_3  S_3  
     e( 23 - 23) =     13.88204  eV     1   --> A_1  D_1  S_1  
     e( 24 - 24) =     15.12549  eV     1   --> B_2  D_4  S_4  

 **************************************************************************

 **************************************************************************

                    xk=(   0.35000,   0.50000,   0.00000  )

     Band symmetry, C_2v (mm2)  point group:

     e(  1 -  1) =    -46.01151  eV     1   --> B_2  D_4  S_4  
     e(  2 -  2) =    -22.74122  eV     1   --> A_1  D_1  S_1  
     e(  3 -  3) =    -22.66519  eV     1   --> B_2  D_4  S_4  
     e(  4 -  4) =    -22.62912  eV     1   --> A_1  D_1  S_1  
     e(  5 -  5) =    -22.60238  eV     1   --> A_2  D_2  S_2  
     e(  6 -  6) =     -7.05491  eV     1   --> B_2  D_4  S_4  
     e(  7 -  7) =     -6.44639  eV     1   --> A_1  D_1  S_1  
     e(  8 -  8) =     -6.33850  eV     1   --> B_2  D_4  S_4  
     e(  9 -  9) =     -4.66641  eV     1   --> B_1  D_3  S_3  
     e( 10 - 10) =     -4.35394  eV     1   --> A_1  D_1  S_1  
     e( 11 - 11) =     -4.27384  eV     1   --> B_2  D_4  S_4  
     e( 12 - 12) =      5.23908  eV     1   --> A_1  D_1  S_1  
     e( 13 - 13) =      5.30452  eV     1   --> B_2  D_4  S_4  
     e( 14 - 14) =      5.80326  eV     1   --> B_2  D_4  S_4  
     e( 15 - 15) =      6.84001  eV     1   --> A_2  D_2  S_2  
     e( 16 - 16) =      6.92412  eV     1   --> B_1  D_3  S_3  
     e( 17 - 17) =      8.04088  eV     1   --> A_1  D_1  S_1  
     e( 18 - 18) =      8.18405  eV     1   --> B_2  D_4  S_4  
     e( 19 - 19) =      8.20261  eV     1   --> A_2  D_2  S_2  
     e( 20 - 20) =      9.48243  eV     1   --> A_1  D_1  S_1  
     e( 21 - 21) =     13.22203  eV     1   --> A_2  D_2  S_2  
     e( 22 - 22) =     13.55832  eV     1   --> B_1  D_3  S_3  
     e( 23 - 23) =     13.83629  eV     1   --> A_1  D_1  S_1  
     e( 24 - 24) =     15.10344  eV     1   --> B_2  D_4  S_4  

 **************************************************************************

 **************************************************************************

                    xk=(   0.32500,   0.50000,   0.00000  )

     Band symmetry, C_2v (mm2)  point group:

     e(  1 -  1) =    -46.01162  eV     1   --> B_2  D_4  S_4  
     e(  2 -  2) =    -22.75041  eV     1   --> A_1  D_1  S_1  
     e(  3 -  3) =    -22.66015  eV     1   --> B_2  D_4  S_4  
     e(  4 -  4) =    -22.62143  eV     1   --> A_1  D_1  S_1  
     e(  5 -  5) =    -22.60259  eV     1   --> A_2  D_2  S_2  
     e(  6 -  6) =     -7.12400  eV     1   --> B_2  D_4  S_4  
     e(  7 -  7) =     -6.41523  eV     1   --> A_1  D_1  S_1  
     e(  8 -  8) =     -6.31552  eV     1   --> B_2  D_4  S_4  
     e(  9 -  9) =     -4.67072  eV     1   --> B_1  D_3  S_3  
     e( 10 - 10) =     -4.37901  eV     1   --> A_1  D_1  S_1  
     e( 11 - 11) =     -4.26780  eV     1   --> B_2  D_4  S_4  
     e( 12 - 12) =      5.32060  eV     1   --> B_2  D_4  S_4  
     e( 13 - 13) =      5.32814  eV     1   --> A_1  D_1  S_1  
     e( 14 - 14) =      5.91676  eV     1   --> B_2  D_4  S_4  
     e( 15 - 15) =      6.84538  eV     1   --> A_2  D_2  S_2  
     e( 16 - 16) =      6.95805  eV     1   --> B_1  D_3  S_3  
     e( 17 - 17) =      7.99591  eV     1   --> A_1  D_1  S_1  
     e( 18 - 18) =      8.19415  eV     1   --> B_2  D_4  S_4  
     e( 19 - 19) =      8.25327  eV     1   --> A_2  D_2  S_2  
     e( 20 - 20) =      9.40867  eV     1   --> A_1  D_1  S_1  
     e( 21 - 21) =     13.11004  eV     1   --> A_2  D_2  S_2  
     e( 22 - 22) =     13.55756  eV     1   --> B_1  D_3  S_3  
     e( 23 - 23) =     13.78920  eV     1   --> A_1  D_1  S_1  
     e( 24 - 24) =     15.07516  eV     1   --> B_2  D_4  S_4  

 **************************************************************************

 **************************************************************************

                    xk=(   0.30000,   0.50000,   0.00000  )

     Band symmetry, C_2v (mm2)  point group:

     e(  1 -  1) =    -46.01174  eV     1   --> B_2  D_4  S_4  
     e(  2 -  2) =    -22.75926  eV     1   --> A_1  D_1  S_1  
     e(  3 -  3) =    -22.65468  eV     1   --> B_2  D_4  S_4  
     e(  4 -  4) =    -22.61419  eV     1   --> A_1  D_1  S_1  
     e(  5 -  5) =    -22.60282  eV     1   --> A_2  D_2  S_2  
     e(  6 -  6) =     -7.19186  eV     1   --> B_2  D_4  S_4  
     e(  7 -  7) =     -6.38061  eV     1   --> A_1  D_1  S_1  
     e(  8 -  8) =     -6.29869  eV     1   --> B_2  D_4  S_4  
     e(  9 -  9) =     -4.67536  eV     1   --> B_1  D_3  S_3  
     e( 10 - 10) =     -4.40693  eV     1   --> A_1  D_1  S_1  
     e( 11 - 11) =     -4.25935  eV     1   --> B_2  D_4  S_4  
     e( 12 - 12) =      5.33292  eV     1   --> B_2  D_4  S_4  
     e( 13 - 13) =      5.42955  eV     1   --> A_1  D_1  S_1  
     e( 14 - 14) =      6.04222  eV     1   --> B_2  D_4  S_4  
     e( 15 - 15) =      6.85085  eV     1   --> A_2  D_2  S_2  
     e( 16 - 16) =      6.99515  eV     1   --> B_1  D_3  S_3  
     e( 17 - 17) =      7.94712  eV     1   --> A_1  D_1  S_1  
     e( 18 - 18) =      8.21162  eV     1   --> B_2  D_4  S_4  
     e( 19 - 19) =      8.31099  eV     1   --> A_2  D_2  S_2  
     e( 20 - 20) =      9.32155  eV     1   --> A_1  D_1  S_1  
     e( 21 - 21) =     12.98717  eV     1   --> A_2  D_2  S_2  
     e( 22 - 22) =     13.55677  eV     1   --> B_1  D_3  S_3  
     e( 23 - 23) =     13.74315  eV     1   --> A_1  D_1  S_1  
     e( 24 - 24) =     15.03950  eV     1   --> B_2  D_4  S_4  

 **************************************************************************

 **************************************************************************

                    xk=(   0.27500,   0.50000,   0.00000  )

     Band symmetry, C_2v (mm2)  point group:

     e(  1 -  1) =    -46.01186  eV     1   --> B_2  D_4  S_4  
     e(  2 -  2) =    -22.76771  eV     1   --> A_1  D_1  S_1  
     e(  3 -  3) =    -22.64892  eV     1   --> B_2  D_4  S_4  
     e(  4 -  4) =    -22.60744  eV     1   --> A_1  D_1  S_1  
     e(  5 -  5) =    -22.60306  eV     1   --> A_2  D_2  S_2  
     e(  6 -  6) =     -7.25767  eV     1   --> B_2  D_4  S_4  
     e(  7 -  7) =     -6.34311  eV     1   --> A_1  D_1  S_1  
     e(  8 -  8) =     -6.28767  eV     1   --> B_2  D_4  S_4  
     e(  9 -  9) =     -4.68025  eV     1   --> B_1  D_3  S_3  
     e( 10 - 10) =     -4.43728  eV     1   --> A_1  D_1  S_1  
     e( 11 - 11) =     -4.24848  eV     1   --> B_2  D_4  S_4  
     e( 12 - 12) =      5.34262  eV     1   --> B_2  D_4  S_4  
     e( 13 - 13) =      5.54275  eV     1   --> A_1  D_1  S_1  
     e( 14 - 14) =      6.17342  eV     1   --> B_2  D_4  S_4  
     e( 15 - 15) =      6.85624  eV     1   --> A_2  D_2  S_2  
     e( 16 - 16) =      7.03459  eV     1   --> B_1  D_3  S_3  
     e( 17 - 17) =      7.89570  eV     1   --> A_1  D_1  S_1  
     e( 18 - 18) =      8.23908  eV     1   --> B_2  D_4  S_4  
     e( 19 - 19) =      8.37519  eV     1   --> A_2  D_2  S_2  
     e( 20 - 20) =      9.22086  eV     1   --> A_1  D_1  S_1  
     e( 21 - 21) =     12.85578  eV     1   --> A_2  D_2  S_2  
     e( 22 - 22) =     13.55599  eV     1   --> B_1  D_3  S_3  
     e( 23 - 23) =     13.70022  eV     1   --> A_1  D_1  S_1  
     e( 24 - 24) =     14.99518  eV     1   --> B_2  D_4  S_4  

 **************************************************************************

 **************************************************************************

                    xk=(   0.25000,   0.50000,   0.00000  )

     Band symmetry, C_2v (mm2)  point group:

     e(  1 -  1) =    -46.01199  eV     1   --> B_2  D_4  S_4  
     e(  2 -  2) =    -22.77569  eV     1   --> A_1  D_1  S_1  
     e(  3 -  3) =    -22.64300  eV     1   --> B_2  D_4  S_4  
     e(  4 -  4) =    -22.60331  eV     1   --> A_2  D_2  S_2  
     e(  5 -  5) =    -22.60120  eV     1   --> A_1  D_1  S_1  
     e(  6 -  6) =     -7.32063  eV     1   --> B_2  D_4  S_4  
     e(  7 -  7) =     -6.30341  eV     1   --> A_1  D_1  S_1  
     e(  8 -  8) =     -6.28184  eV     1   --> B_2  D_4  S_4  
     e(  9 -  9) =     -4.68524  eV     1   --> B_1  D_3  S_3  
     e( 10 - 10) =     -4.46953  eV     1   --> A_1  D_1  S_1  
     e( 11 - 11) =     -4.23542  eV     1   --> B_2  D_4  S_4  
     e( 12 - 12) =      5.35054  eV     1   --> B_2  D_4  S_4  
     e( 13 - 13) =      5.66711  eV     1   --> A_1  D_1  S_1  
     e( 14 - 14) =      6.30399  eV     1   --> B_2  D_4  S_4  
     e( 15 - 15) =      6.86139  eV     1   --> A_2  D_2  S_2  
     e( 16 - 16) =      7.07544  eV     1   --> B_1  D_3  S_3  
     e( 17 - 17) =      7.84288  eV     1   --> A_1  D_1  S_1  
     e( 18 - 18) =      8.27928  eV     1   --> B_2  D_4  S_4  
     e( 19 - 19) =      8.44509  eV     1   --> A_2  D_2  S_2  
     e( 20 - 20) =      9.10669  eV     1   --> A_1  D_1  S_1  
     e( 21 - 21) =     12.71839  eV     1   --> A_2  D_2  S_2  
     e( 22 - 22) =     13.55524  eV     1   --> B_1  D_3  S_3  
     e( 23 - 23) =     13.66201  eV     1   --> A_1  D_1  S_1  
     e( 24 - 24) =     14.94090  eV     1   --> B_2  D_4  S_4  

 **************************************************************************

 **************************************************************************

                    xk=(   0.22500,   0.50000,   0.00000  )

     Band symmetry, C_2v (mm2)  point group:

     e(  1 -  1) =    -46.01212  eV     1   --> B_2  D_4  S_4  
     e(  2 -  2) =    -22.78313  eV     1   --> A_1  D_1  S_1  
     e(  3 -  3) =    -22.63707  eV     1   --> B_2  D_4  S_4  
     e(  4 -  4) =    -22.60355  eV     1   --> A_2  D_2  S_2  
     e(  5 -  5) =    -22.59551  eV     1   --> A_1  D_1  S_1  
     e(  6 -  6) =     -7.38005  eV     1   --> B_2  D_4  S_4  
     e(  7 -  7) =     -6.28042  eV     1   --> B_2  D_4  S_4  
     e(  8 -  8) =     -6.26231  eV     1   --> A_1  D_1  S_1  
     e(  9 -  9) =     -4.69022  eV     1   --> B_1  D_3  S_3  
     e( 10 - 10) =     -4.50308  eV     1   --> A_1  D_1  S_1  
     e( 11 - 11) =     -4.22060  eV     1   --> B_2  D_4  S_4  
     e( 12 - 12) =      5.35725  eV     1   --> B_2  D_4  S_4  
     e( 13 - 13) =      5.80193  eV     1   --> A_1  D_1  S_1  
     e( 14 - 14) =      6.42779  eV     1   --> B_2  D_4  S_4  
     e( 15 - 15) =      6.86620  eV     1   --> A_2  D_2  S_2  
     e( 16 - 16) =      7.11674  eV     1   --> B_1  D_3  S_3  
     e( 17 - 17) =      7.78989  eV     1   --> A_1  D_1  S_1  
     e( 18 - 18) =      8.33463  eV     1   --> B_2  D_4  S_4  
     e( 19 - 19) =      8.51965  eV     1   --> A_2  D_2  S_2  
     e( 20 - 20) =      8.97951  eV     1   --> A_1  D_1  S_1  
     e( 21 - 21) =     12.57770  eV     1   --> A_2  D_2  S_2  
     e( 22 - 22) =     13.55455  eV     1   --> B_1  D_3  S_3  
     e( 23 - 23) =     13.62961  eV     1   --> A_1  D_1  S_1  
     e( 24 - 24) =     14.87557  eV     1   --> B_2  D_4  S_4  

 **************************************************************************

 **************************************************************************

                    xk=(   0.20000,   0.50000,   0.00000  )

     Band symmetry, C_2v (mm2)  point group:

     e(  1 -  1) =    -46.01224  eV     1   --> B_2  D_4  S_4  
     e(  2 -  2) =    -22.78996  eV     1   --> A_1  D_1  S_1  
     e(  3 -  3) =    -22.63127  eV     1   --> B_2  D_4  S_4  
     e(  4 -  4) =    -22.60379  eV     1   --> A_2  D_2  S_2  
     e(  5 -  5) =    -22.59036  eV     1   --> A_1  D_1  S_1  
     e(  6 -  6) =     -7.43524  eV     1   --> B_2  D_4  S_4  
     e(  7 -  7) =     -6.28248  eV     1   --> B_2  D_4  S_4  
     e(  8 -  8) =     -6.22067  eV     1   --> A_1  D_1  S_1  
     e(  9 -  9) =     -4.69507  eV     1   --> B_1  D_3  S_3  
     e( 10 - 10) =     -4.53723  eV     1   --> A_1  D_1  S_1  
     e( 11 - 11) =     -4.20463  eV     1   --> B_2  D_4  S_4  
     e( 12 - 12) =      5.36308  eV     1   --> B_2  D_4  S_4  
     e( 13 - 13) =      5.94640  eV     1   --> A_1  D_1  S_1  
     e( 14 - 14) =      6.53947  eV     1   --> B_2  D_4  S_4  
     e( 15 - 15) =      6.87057  eV     1   --> A_2  D_2  S_2  
     e( 16 - 16) =      7.15747  eV     1   --> B_1  D_3  S_3  
     e( 17 - 17) =      7.73797  eV     1   --> A_1  D_1  S_1  
     e( 18 - 18) =      8.40644  eV     1   --> B_2  D_4  S_4  
     e( 19 - 19) =      8.59751  eV     1   --> A_2  D_2  S_2  
     e( 20 - 20) =      8.84018  eV     1   --> A_1  D_1  S_1  
     e( 21 - 21) =     12.43659  eV     1   --> A_2  D_2  S_2  
     e( 22 - 22) =     13.55393  eV     1   --> B_1  D_3  S_3  
     e( 23 - 23) =     13.60352  eV     1   --> A_1  D_1  S_1  
     e( 24 - 24) =     14.79874  eV     1   --> B_2  D_4  S_4  

 **************************************************************************

 **************************************************************************

                    xk=(   0.17500,   0.50000,   0.00000  )

     Band symmetry, C_2v (mm2)  point group:

     e(  1 -  1) =    -46.01236  eV     1   --> B_2  D_4  S_4  
     e(  2 -  2) =    -22.79614  eV     1   --> A_1  D_1  S_1  
     e(  3 -  3) =    -22.62575  eV     1   --> B_2  D_4  S_4  
     e(  4 -  4) =    -22.60401  eV     1   --> A_2  D_2  S_2  
     e(  5 -  5) =    -22.58580  eV     1   --> A_1  D_1  S_1  
     e(  6 -  6) =     -7.48557  eV     1   --> B_2  D_4  S_4  
     e(  7 -  7) =     -6.28705  eV     1   --> B_2  D_4  S_4  
     e(  8 -  8) =     -6.17952  eV     1   --> A_1  D_1  S_1  
     e(  9 -  9) =     -4.69966  eV     1   --> B_1  D_3  S_3  
     e( 10 - 10) =     -4.57118  eV     1   --> A_1  D_1  S_1  
     e( 11 - 11) =     -4.18820  eV     1   --> B_2  D_4  S_4  
     e( 12 - 12) =      5.36821  eV     1   --> B_2  D_4  S_4  
     e( 13 - 13) =      6.09965  eV     1   --> A_1  D_1  S_1  
     e( 14 - 14) =      6.63523  eV     1   --> B_2  D_4  S_4  
     e( 15 - 15) =      6.87445  eV     1   --> A_2  D_2  S_2  
     e( 16 - 16) =      7.19657  eV     1   --> B_1  D_3  S_3  
     e( 17 - 17) =      7.68824  eV     1   --> A_1  D_1  S_1  
     e( 18 - 18) =      8.49410  eV     1   --> B_2  D_4  S_4  
     e( 19 - 19) =      8.67693  eV     1   --> A_2  D_2  S_2  
     e( 20 - 20) =      8.68997  eV     1   --> A_1  D_1  S_1  
     e( 21 - 21) =     12.29816  eV     1   --> A_2  D_2  S_2  
     e( 22 - 22) =     13.55340  eV     1   --> B_1  D_3  S_3  
     e( 23 - 23) =     13.58372  eV     1   --> A_1  D_1  S_1  
     e( 24 - 24) =     14.71108  eV     1   --> B_2  D_4  S_4  

 **************************************************************************

 **************************************************************************

                    xk=(   0.15000,   0.50000,   0.00000  )

     Band symmetry, C_2v (mm2)  point group:

     e(  1 -  1) =    -46.01247  eV     1   --> B_2  D_4  S_4  
     e(  2 -  2) =    -22.80162  eV     1   --> A_1  D_1  S_1  
     e(  3 -  3) =    -22.62064  eV     1   --> B_2  D_4  S_4  
     e(  4 -  4) =    -22.60422  eV     1   --> A_2  D_2  S_2  
     e(  5 -  5) =    -22.58182  eV     1   --> A_1  D_1  S_1  
     e(  6 -  6) =     -7.53047  eV     1   --> B_2  D_4  S_4  
     e(  7 -  7) =     -6.29318  eV     1   --> B_2  D_4  S_4  
     e(  8 -  8) =     -6.13997  eV     1   --> A_1  D_1  S_1  
     e(  9 -  9) =     -4.70390  eV     1   --> B_1  D_3  S_3  
     e( 10 - 10) =     -4.60400  eV     1   --> A_1  D_1  S_1  
     e( 11 - 11) =     -4.17207  eV     1   --> B_2  D_4  S_4  
     e( 12 - 12) =      5.37275  eV     1   --> B_2  D_4  S_4  
     e( 13 - 13) =      6.26067  eV     1   --> A_1  D_1  S_1  
     e( 14 - 14) =      6.71333  eV     1   --> B_2  D_4  S_4  
     e( 15 - 15) =      6.87781  eV     1   --> A_2  D_2  S_2  
     e( 16 - 16) =      7.23304  eV     1   --> B_1  D_3  S_3  
     e( 17 - 17) =      7.64166  eV     1   --> A_1  D_1  S_1  
     e( 18 - 18) =      8.53058  eV     1   --> A_1  D_1  S_1  
     e( 19 - 19) =      8.59437  eV     1   --> B_2  D_4  S_4  
     e( 20 - 20) =      8.75575  eV     1   --> A_2  D_2  S_2  
     e( 21 - 21) =     12.16579  eV     1   --> A_2  D_2  S_2  
     e( 22 - 22) =     13.55296  eV     1   --> B_1  D_3  S_3  
     e( 23 - 23) =     13.56971  eV     1   --> A_1  D_1  S_1  
     e( 24 - 24) =     14.61492  eV     1   --> B_2  D_4  S_4  

 **************************************************************************

 **************************************************************************

                    xk=(   0.12500,   0.50000,   0.00000  )

     Band symmetry, C_2v (mm2)  point group:

     e(  1 -  1) =    -46.01257  eV     1   --> B_2  D_4  S_4  
     e(  2 -  2) =    -22.80633  eV     1   --> A_1  D_1  S_1  
     e(  3 -  3) =    -22.61609  eV     1   --> B_2  D_4  S_4  
     e(  4 -  4) =    -22.60441  eV     1   --> A_2  D_2  S_2  
     e(  5 -  5) =    -22.57843  eV     1   --> A_1  D_1  S_1  
     e(  6 -  6) =     -7.56941  eV     1   --> B_2  D_4  S_4  
     e(  7 -  7) =     -6.29998  eV     1   --> B_2  D_4  S_4  
     e(  8 -  8) =     -6.10323  eV     1   --> A_1  D_1  S_1  
     e(  9 -  9) =     -4.70766  eV     1   --> B_1  D_3  S_3  
     e( 10 - 10) =     -4.63466  eV     1   --> A_1  D_1  S_1  
     e( 11 - 11) =     -4.15697  eV     1   --> B_2  D_4  S_4  
     e( 12 - 12) =      5.37670  eV     1   --> B_2  D_4  S_4  
     e( 13 - 13) =      6.42825  eV     1   --> A_1  D_1  S_1  
     e( 14 - 14) =      6.77404  eV     1   --> B_2  D_4  S_4  
     e( 15 - 15) =      6.88063  eV     1   --> A_2  D_2  S_2  
     e( 16 - 16) =      7.26587  eV     1   --> B_1  D_3  S_3  
     e( 17 - 17) =      7.59884  eV     1   --> A_1  D_1  S_1  
     e( 18 - 18) =      8.36427  eV     1   --> A_1  D_1  S_1  
     e( 19 - 19) =      8.70135  eV     1   --> B_2  D_4  S_4  
     e( 20 - 20) =      8.83133  eV     1   --> A_2  D_2  S_2  
     e( 21 - 21) =     12.04317  eV     1   --> A_2  D_2  S_2  
     e( 22 - 22) =     13.55261  eV     1   --> B_1  D_3  S_3  
     e( 23 - 23) =     13.56064  eV     1   --> A_1  D_1  S_1  
     e( 24 - 24) =     14.51460  eV     1   --> B_2  D_4  S_4  

 **************************************************************************

 **************************************************************************

                    xk=(   0.10000,   0.50000,   0.00000  )

     Band symmetry, C_2v (mm2)  point group:

     e(  1 -  1) =    -46.01265  eV     1   --> B_2  D_4  S_4  
     e(  2 -  2) =    -22.81025  eV     1   --> A_1  D_1  S_1  
     e(  3 -  3) =    -22.61219  eV     1   --> B_2  D_4  S_4  
     e(  4 -  4) =    -22.60457  eV     1   --> A_2  D_2  S_2  
     e(  5 -  5) =    -22.57565  eV     1   --> A_1  D_1  S_1  
     e(  6 -  6) =     -7.60193  eV     1   --> B_2  D_4  S_4  
     e(  7 -  7) =     -6.30666  eV     1   --> B_2  D_4  S_4  
     e(  8 -  8) =     -6.07061  eV     1   --> A_1  D_1  S_1  
     e(  9 -  9) =     -4.71088  eV     1   --> B_1  D_3  S_3  
     e( 10 - 10) =     -4.66205  eV     1   --> A_1  D_1  S_1  
     e( 11 - 11) =     -4.14357  eV     1   --> B_2  D_4  S_4  
     e( 12 - 12) =      5.38004  eV     1   --> B_2  D_4  S_4  
     e( 13 - 13) =      6.60091  eV     1   --> A_1  D_1  S_1  
     e( 14 - 14) =      6.81906  eV     1   --> B_2  D_4  S_4  
     e( 15 - 15) =      6.88292  eV     1   --> A_2  D_2  S_2  
     e( 16 - 16) =      7.29414  eV     1   --> B_1  D_3  S_3  
     e( 17 - 17) =      7.55971  eV     1   --> A_1  D_1  S_1  
     e( 18 - 18) =      8.19423  eV     1   --> A_1  D_1  S_1  
     e( 19 - 19) =      8.80707  eV     1   --> B_2  D_4  S_4  
     e( 20 - 20) =      8.90054  eV     1   --> A_2  D_2  S_2  
     e( 21 - 21) =     11.93429  eV     1   --> A_2  D_2  S_2  
     e( 22 - 22) =     13.55235  eV     1   --> B_1  D_3  S_3  
     e( 23 - 23) =     13.55543  eV     1   --> A_1  D_1  S_1  
     e( 24 - 24) =     14.41638  eV     1   --> B_2  D_4  S_4  

 **************************************************************************

 **************************************************************************

                    xk=(   0.07500,   0.50000,   0.00000  )

     Band symmetry, C_2v (mm2)  point group:

     e(  1 -  1) =    -46.01271  eV     1   --> B_2  D_4  S_4  
     e(  2 -  2) =    -22.81333  eV     1   --> A_1  D_1  S_1  
     e(  3 -  3) =    -22.60905  eV     1   --> B_2  D_4  S_4  
     e(  4 -  4) =    -22.60470  eV     1   --> A_2  D_2  S_2  
     e(  5 -  5) =    -22.57348  eV     1   --> A_1  D_1  S_1  
     e(  6 -  6) =     -7.62764  eV     1   --> B_2  D_4  S_4  
     e(  7 -  7) =     -6.31256  eV     1   --> B_2  D_4  S_4  
     e(  8 -  8) =     -6.04343  eV     1   --> A_1  D_1  S_1  
     e(  9 -  9) =     -4.71346  eV     1   --> B_1  D_3  S_3  
     e( 10 - 10) =     -4.68497  eV     1   --> A_1  D_1  S_1  
     e( 11 - 11) =     -4.13250  eV     1   --> B_2  D_4  S_4  
     e( 12 - 12) =      5.38272  eV     1   --> B_2  D_4  S_4  
     e( 13 - 13) =      6.77654  eV     1   --> A_1  D_1  S_1  
     e( 14 - 14) =      6.85077  eV     1   --> B_2  D_4  S_4  
     e( 15 - 15) =      6.88469  eV     1   --> A_2  D_2  S_2  
     e( 16 - 16) =      7.31706  eV     1   --> B_1  D_3  S_3  
     e( 17 - 17) =      7.52245  eV     1   --> A_1  D_1  S_1  
     e( 18 - 18) =      8.02580  eV     1   --> A_1  D_1  S_1  
     e( 19 - 19) =      8.90247  eV     1   --> B_2  D_4  S_4  
     e( 20 - 20) =      8.95987  eV     1   --> A_2  D_2  S_2  
     e( 21 - 21) =     11.84337  eV     1   --> A_2  D_2  S_2  
     e( 22 - 22) =     13.55217  eV     1   --> B_1  D_3  S_3  
     e( 23 - 23) =     13.55294  eV     1   --> A_1  D_1  S_1  
     e( 24 - 24) =     14.32789  eV     1   --> B_2  D_4  S_4  

 **************************************************************************

 **************************************************************************

                    xk=(   0.05000,   0.50000,   0.00000  )

     Band symmetry, C_2v (mm2)  point group:

     e(  1 -  1) =    -46.01276  eV     1   --> B_2  D_4  S_4  
     e(  2 -  2) =    -22.81555  eV     1   --> A_1  D_1  S_1  
     e(  3 -  3) =    -22.60675  eV     1   --> B_2  D_4  S_4  
     e(  4 -  4) =    -22.60479  eV     1   --> A_2  D_2  S_2  
     e(  5 -  5) =    -22.57193  eV     1   --> A_1  D_1  S_1  
     e(  6 -  6) =     -7.64623  eV     1   --> B_2  D_4  S_4  
     e(  7 -  7) =     -6.31715  eV     1   --> B_2  D_4  S_4  
     e(  8 -  8) =     -6.02293  eV     1   --> A_1  D_1  S_1  
     e(  9 -  9) =     -4.71534  eV     1   --> B_1  D_3  S_3  
     e( 10 - 10) =     -4.70234  eV     1   --> A_1  D_1  S_1  
     e( 11 - 11) =     -4.12423  eV     1   --> B_2  D_4  S_4  
     e( 12 - 12) =      5.38469  eV     1   --> B_2  D_4  S_4  
     e( 13 - 13) =      6.87152  eV     1   --> B_2  D_4  S_4  
     e( 14 - 14) =      6.88594  eV     1   --> A_2  D_2  S_2  
     e( 15 - 15) =      6.95167  eV     1   --> A_1  D_1  S_1  
     e( 16 - 16) =      7.33393  eV     1   --> B_1  D_3  S_3  
     e( 17 - 17) =      7.48049  eV     1   --> A_1  D_1  S_1  
     e( 18 - 18) =      7.87025  eV     1   --> A_1  D_1  S_1  
     e( 19 - 19) =      8.97860  eV     1   --> B_2  D_4  S_4  
     e( 20 - 20) =      9.00572  eV     1   --> A_2  D_2  S_2  
     e( 21 - 21) =     11.77457  eV     1   --> A_2  D_2  S_2  
     e( 22 - 23) =     13.55205  eV     2   --> A_1  D_1  S_1  
     e( 22 - 23) =     13.55205  eV     2   --> B_1  D_3  S_3  
     e( 24 - 24) =     14.25717  eV     1   --> B_2  D_4  S_4  

 **************************************************************************

 **************************************************************************

                    xk=(   0.02500,   0.50000,   0.00000  )

     Band symmetry, C_2v (mm2)  point group:

     e(  1 -  1) =    -46.01279  eV     1   --> B_2  D_4  S_4  
     e(  2 -  2) =    -22.81688  eV     1   --> A_1  D_1  S_1  
     e(  3 -  3) =    -22.60534  eV     1   --> B_2  D_4  S_4  
     e(  4 -  4) =    -22.60485  eV     1   --> A_2  D_2  S_2  
     e(  5 -  5) =    -22.57099  eV     1   --> A_1  D_1  S_1  
     e(  6 -  6) =     -7.65747  eV     1   --> B_2  D_4  S_4  
     e(  7 -  7) =     -6.32005  eV     1   --> B_2  D_4  S_4  
     e(  8 -  8) =     -6.01017  eV     1   --> A_1  D_1  S_1  
     e(  9 -  9) =     -4.71650  eV     1   --> B_1  D_3  S_3  
     e( 10 - 10) =     -4.71319  eV     1   --> A_1  D_1  S_1  
     e( 11 - 11) =     -4.11912  eV     1   --> B_2  D_4  S_4  
     e( 12 - 12) =      5.38590  eV     1   --> B_2  D_4  S_4  
     e( 13 - 13) =      6.88318  eV     1   --> B_2  D_4  S_4  
     e( 14 - 14) =      6.88669  eV     1   --> A_2  D_2  S_2  
     e( 15 - 15) =      7.11812  eV     1   --> A_1  D_1  S_1  
     e( 16 - 16) =      7.34426  eV     1   --> B_1  D_3  S_3  
     e( 17 - 17) =      7.41712  eV     1   --> A_1  D_1  S_1  
     e( 18 - 18) =      7.75336  eV     1   --> A_1  D_1  S_1  
     e( 19 - 19) =      9.02777  eV     1   --> B_2  D_4  S_4  
     e( 20 - 20) =      9.03480  eV     1   --> A_2  D_2  S_2  
     e( 21 - 21) =     11.73156  eV     1   --> A_2  D_2  S_2  
     e( 22 - 23) =     13.55194  eV     2   --> A_1  D_1  S_1  
     e( 22 - 23) =     13.55194  eV     2   --> B_1  D_3  S_3  
     e( 24 - 24) =     14.21138  eV     1   --> B_2  D_4  S_4  

 **************************************************************************

 **************************************************************************

                    xk=(   0.00000,   0.50000,   0.00000  )

     point group D_4h(4/mmm)
     there are 10 classes
     the character table:

       E     2C4   C2    2C2'  2C2'' i     2S4   s_h   2s_v  2s_d 
A_1g   1.00  1.00  1.00  1.00  1.00  1.00  1.00  1.00  1.00  1.00
A_2g   1.00  1.00  1.00 -1.00 -1.00  1.00  1.00  1.00 -1.00 -1.00
B_1g   1.00 -1.00  1.00  1.00 -1.00  1.00 -1.00  1.00  1.00 -1.00
B_2g   1.00 -1.00  1.00 -1.00  1.00  1.00 -1.00  1.00 -1.00  1.00
E_g    2.00  0.00 -2.00  0.00  0.00  2.00  0.00 -2.00  0.00  0.00
A_1u   1.00  1.00  1.00  1.00  1.00 -1.00 -1.00 -1.00 -1.00 -1.00
A_2u   1.00  1.00  1.00 -1.00 -1.00 -1.00 -1.00 -1.00  1.00  1.00
B_1u   1.00 -1.00  1.00  1.00 -1.00 -1.00  1.00 -1.00 -1.00  1.00
B_2u   1.00 -1.00  1.00 -1.00  1.00 -1.00  1.00 -1.00  1.00 -1.00
E_u    2.00  0.00 -2.00  0.00  0.00 -2.00  0.00  2.00  0.00  0.00

     the symmetry operations in each class and the name of the first element:

     E        1
                                                                 
     2C4      7    8
                                                                 
     C2       3
                                                                 
     2C2'     2    4
                                                                 
     2C2''    5    6
                                                                 
     i        9
                                                                 
     2S4     15   16
                                                                 
     s_h     11
                                                                 
     2s_v    10   12
                                                                 
     2s_d    13   14
                                                                 

     Band symmetry, D_4h(4/mmm) point group:

     e(  1 -  1) =    -46.01280  eV     1   --> A_2u X_4' M_4' 
     e(  2 -  2) =    -22.81733  eV     1   --> A_1g X_1  M_1  
     e(  3 -  4) =    -22.60487  eV     2   --> E_g  X_5  M_5  
     e(  5 -  5) =    -22.57068  eV     1   --> A_1g X_1  M_1  
[...]
     e(  9 - 10) =     -4.67598  eV     2   --> E    L_3       
     e( 11 - 11) =     -4.41053  eV     1   --> A_1  L_1       
     e( 12 - 12) =      6.06949  eV     1   --> A_1  L_1       
     e( 13 - 14) =      6.70090  eV     2   --> E    L_3       
     e( 15 - 16) =      7.34541  eV     2   --> E    L_3       
     e( 17 - 17) =      7.86269  eV     1   --> A_1  L_1       
     e( 18 - 19) =      8.83515  eV     2   --> E    L_3       
     e( 20 - 20) =      8.86632  eV     1   --> A_2  L_2       
     e( 21 - 21) =     12.48741  eV     1   --> A_1  L_1       
     e( 22 - 23) =     12.57782  eV     2   --> E    L_3       
     e( 24 - 24) =     15.45982  eV     1   -->   ?

 **************************************************************************

 **************************************************************************

                    xk=(   0.20000,   0.20000,   0.20000  )

     Band symmetry, C_3v (3m)   point group:

     e(  1 -  1) =    -46.01275  eV     1   --> A_1  L_1       
     e(  2 -  2) =    -22.75968  eV     1   --> A_1  L_1       
     e(  3 -  4) =    -22.63208  eV     2   --> E    L_3       
     e(  5 -  5) =    -22.57875  eV     1   --> A_1  L_1       
     e(  6 -  6) =     -7.26208  eV     1   --> A_1  L_1       
     e(  7 -  8) =     -6.36432  eV     2   --> E    L_3       
     e(  9 - 10) =     -4.67114  eV     2   --> E    L_3       
     e( 11 - 11) =     -4.35836  eV     1   --> A_1  L_1       
     e( 12 - 12) =      5.90548  eV     1   --> A_1  L_1       
     e( 13 - 14) =      6.60934  eV     2   --> E    L_3       
     e( 15 - 16) =      7.12884  eV     2   --> E    L_3       
     e( 17 - 17) =      7.54804  eV     1   --> A_1  L_1       
     e( 18 - 19) =      8.79459  eV     2   --> E    L_3       
     e( 20 - 20) =      8.94920  eV     1   --> A_2  L_2       
     e( 21 - 21) =     12.69065  eV     1   --> A_1  L_1       
     e( 22 - 23) =     12.77038  eV     2   --> E    L_3       
     e( 24 - 24) =     15.75775  eV     1   -->   ?

 **************************************************************************

 **************************************************************************

                    xk=(   0.22500,   0.22500,   0.22500  )

     Band symmetry, C_3v (3m)   point group:

     e(  1 -  1) =    -46.01238  eV     1   --> A_1  L_1       
     e(  2 -  2) =    -22.75591  eV     1   --> A_1  L_1       
     e(  3 -  4) =    -22.63732  eV     2   --> E    L_3       
     e(  5 -  5) =    -22.58272  eV     1   --> A_1  L_1       
     e(  6 -  6) =     -7.19517  eV     1   --> A_1  L_1       
     e(  7 -  8) =     -6.34811  eV     2   --> E    L_3       
     e(  9 - 10) =     -4.67478  eV     2   --> E    L_3       
     e( 11 - 11) =     -4.32360  eV     1   --> A_1  L_1       
     e( 12 - 12) =      5.76286  eV     1   --> A_1  L_1       
     e( 13 - 14) =      6.50403  eV     2   --> E    L_3       
     e( 15 - 16) =      6.92598  eV     2   --> E    L_3       
     e( 17 - 17) =      7.23838  eV     1   --> A_1  L_1       
     e( 18 - 19) =      8.79033  eV     2   --> E    L_3       
     e( 20 - 20) =      9.03791  eV     1   --> A_2  L_2       
     e( 21 - 21) =     12.89326  eV     1   --> A_1  L_1       
     e( 22 - 23) =     12.96028  eV     2   --> E    L_3       
     e( 24 - 24) =     16.05897  eV     1   -->   ?

 **************************************************************************

 **************************************************************************

                    xk=(   0.25000,   0.25000,   0.25000  )

     Band symmetry, C_3v (3m)   point group:

     e(  1 -  1) =    -46.01199  eV     1   --> A_1  L_1       
     e(  2 -  2) =    -22.74979  eV     1   --> A_1  L_1       
     e(  3 -  4) =    -22.64266  eV     2   --> E    L_3       
     e(  5 -  5) =    -22.58917  eV     1   --> A_1  L_1       
     e(  6 -  6) =     -7.11255  eV     1   --> A_1  L_1       
     e(  7 -  8) =     -6.32548  eV     2   --> E    L_3       
     e(  9 - 10) =     -4.68794  eV     2   --> E    L_3       
     e( 11 - 11) =     -4.31047  eV     1   --> A_1  L_1       
     e( 12 - 12) =      5.64851  eV     1   --> A_1  L_1       
     e( 13 - 14) =      6.38960  eV     2   --> E    L_3       
     e( 15 - 16) =      6.73913  eV     2   --> E    L_3       
     e( 17 - 17) =      6.93901  eV     1   --> A_1  L_1       
     e( 18 - 19) =      8.82201  eV     2   --> E    L_3       
     e( 20 - 20) =      9.13049  eV     1   --> A_2  L_2       
     e( 21 - 21) =     13.09079  eV     1   --> A_1  L_1       
     e( 22 - 23) =     13.14598  eV     2   --> E    L_3       
     e( 24 - 24) =     16.35642  eV     1   -->   ?

 **************************************************************************

 **************************************************************************

                    xk=(   0.27500,   0.27500,   0.27500  )

     Band symmetry, C_3v (3m)   point group:

     e(  1 -  1) =    -46.01161  eV     1   --> A_1  L_1       
     e(  2 -  2) =    -22.74166  eV     1   --> A_1  L_1       
     e(  3 -  4) =    -22.64800  eV     2   --> E    L_3       
     e(  5 -  5) =    -22.59772  eV     1   --> A_1  L_1       
     e(  6 -  6) =     -7.01465  eV     1   --> A_1  L_1       
     e(  7 -  8) =     -6.29637  eV     2   --> E    L_3       
     e(  9 - 10) =     -4.71097  eV     2   --> E    L_3       
     e( 11 - 11) =     -4.32172  eV     1   --> A_1  L_1       
     e( 12 - 12) =      5.56575  eV     1   --> A_1  L_1       
     e( 13 - 14) =      6.27044  eV     2   --> E    L_3       
     e( 15 - 16) =      6.57077  eV     2   --> E    L_3       
     e( 17 - 17) =      6.65548  eV     1   --> A_1  L_1       
     e( 18 - 19) =      8.88636  eV     2   --> E    L_3       
     e( 20 - 20) =      9.22480  eV     1   --> A_2  L_2       
     e( 21 - 21) =     13.27956  eV     1   --> A_1  L_1       
     e( 22 - 23) =     13.32555  eV     2   --> E    L_3       
     e( 24 - 24) =     16.64262  eV     1   -->   ?

 **************************************************************************

 **************************************************************************

                    xk=(   0.30000,   0.30000,   0.30000  )

     Band symmetry, C_3v (3m)   point group:

     e(  1 -  1) =    -46.01124  eV     1   --> A_1  L_1       
     e(  2 -  2) =    -22.73198  eV     1   --> A_1  L_1       
     e(  3 -  4) =    -22.65320  eV     2   --> E    L_3       
     e(  5 -  5) =    -22.60786  eV     1   --> A_1  L_1       
     e(  6 -  6) =     -6.90254  eV     1   --> A_1  L_1       
     e(  7 -  8) =     -6.26111  eV     2   --> E    L_3       
     e(  9 - 10) =     -4.74351  eV     2   --> E    L_3       
     e( 11 - 11) =     -4.35837  eV     1   --> A_1  L_1       
     e( 12 - 12) =      5.51322  eV     1   --> A_1  L_1       
     e( 13 - 14) =      6.14968  eV     2   --> E    L_3       
     e( 15 - 15) =      6.39467  eV     1   --> A_1  L_1       
     e( 16 - 17) =      6.42384  eV     2   --> E    L_3       
     e( 18 - 19) =      8.97826  eV     2   --> E    L_3       
     e( 20 - 20) =      9.31852  eV     1   --> A_2  L_2       
     e( 21 - 21) =     13.45683  eV     1   --> A_1  L_1       
     e( 22 - 23) =     13.49668  eV     2   --> E    L_3       
     e( 24 - 24) =     16.90769  eV     1   -->   ?

 **************************************************************************

 **************************************************************************

                    xk=(   0.32500,   0.32500,   0.32500  )

     Band symmetry, C_3v (3m)   point group:

     e(  1 -  1) =    -46.01089  eV     1   --> A_1  L_1       
     e(  2 -  2) =    -22.72132  eV     1   --> A_1  L_1       
     e(  3 -  4) =    -22.65811  eV     2   --> E    L_3       
     e(  5 -  5) =    -22.61896  eV     1   --> A_1  L_1       
     e(  6 -  6) =     -6.77796  eV     1   --> A_1  L_1       
     e(  7 -  8) =     -6.22043  eV     2   --> E    L_3       
     e(  9 - 10) =     -4.78445  eV     2   --> E    L_3       
     e( 11 - 11) =     -4.41964  eV     1   --> A_1  L_1       
     e( 12 - 12) =      5.48272  eV     1   --> A_1  L_1       
     e( 13 - 14) =      6.02989  eV     2   --> E    L_3       
     e( 15 - 15) =      6.16689  eV     1   --> A_1  L_1       
     e( 16 - 17) =      6.30063  eV     2   --> E    L_3       
     e( 18 - 19) =      9.09137  eV     2   --> E    L_3       
     e( 20 - 20) =      9.40924  eV     1   --> A_2  L_2       
     e( 21 - 21) =     13.62070  eV     1   --> A_1  L_1       
     e( 22 - 23) =     13.65675  eV     2   --> E    L_3       
     e( 24 - 24) =     17.13185  eV     1   -->   ?

 **************************************************************************

 **************************************************************************

                    xk=(   0.35000,   0.35000,   0.35000  )

     Band symmetry, C_3v (3m)   point group:

     e(  1 -  1) =    -46.01056  eV     1   --> A_1  L_1       
     e(  2 -  2) =    -22.71032  eV     1   --> A_1  L_1       
     e(  3 -  4) =    -22.66264  eV     2   --> E    L_3       
     e(  5 -  5) =    -22.63034  eV     1   --> A_1  L_1       
     e(  6 -  6) =     -6.64331  eV     1   --> A_1  L_1       
     e(  7 -  8) =     -6.17555  eV     2   --> E    L_3       
     e(  9 - 10) =     -4.83199  eV     2   --> E    L_3       
     e( 11 - 11) =     -4.50306  eV     1   --> A_1  L_1       
     e( 12 - 12) =      5.45499  eV     1   --> A_1  L_1       
     e( 13 - 14) =      5.91467  eV     2   --> E    L_3       
     e( 15 - 15) =      5.99027  eV     1   --> A_1  L_1       
     e( 16 - 17) =      6.20106  eV     2   --> E    L_3       
     e( 18 - 19) =      9.21839  eV     2   --> E    L_3       
     e( 20 - 20) =      9.49447  eV     1   --> A_2  L_2       
     e( 21 - 21) =     13.76982  eV     1   --> A_1  L_1       
     e( 22 - 23) =     13.80298  eV     2   --> E    L_3       
     e( 24 - 24) =     17.25841  eV     1   -->   ?

 **************************************************************************

 **************************************************************************

                    xk=(   0.37500,   0.37500,   0.37500  )

     Band symmetry, C_3v (3m)   point group:

     e(  1 -  1) =    -46.01027  eV     1   --> A_1  L_1       
     e(  2 -  2) =    -22.69966  eV     1   --> A_1  L_1       
     e(  3 -  4) =    -22.66666  eV     2   --> E    L_3       
     e(  5 -  5) =    -22.64131  eV     1   --> A_1  L_1       
     e(  6 -  6) =     -6.50185  eV     1   --> A_1  L_1       
     e(  7 -  8) =     -6.12822  eV     2   --> E    L_3       
     e(  9 - 10) =     -4.88356  eV     2   --> E    L_3       
     e( 11 - 11) =     -4.60451  eV     1   --> A_1  L_1       
     e( 12 - 12) =      5.40064  eV     1   --> A_1  L_1       
     e( 13 - 14) =      5.80872  eV     2   --> E    L_3       
     e( 15 - 15) =      5.89028  eV     1   --> A_1  L_1       
     e( 16 - 17) =      6.12285  eV     2   --> E    L_3       
     e( 18 - 19) =      9.35103  eV     2   --> E    L_3       
     e( 20 - 20) =      9.57175  eV     1   --> A_2  L_2       
     e( 21 - 21) =     13.90298  eV     1   --> A_1  L_1       
     e( 22 - 23) =     13.93255  eV     2   --> E    L_3       
     e( 24 - 24) =     17.21850  eV     1   -->   ?

 **************************************************************************

 **************************************************************************

                    xk=(   0.40000,   0.40000,   0.40000  )

     Band symmetry, C_3v (3m)   point group:

     e(  1 -  1) =    -46.01003  eV     1   --> A_1  L_1       
     e(  2 -  2) =    -22.69005  eV     1   --> A_1  L_1       
     e(  3 -  4) =    -22.67009  eV     2   --> E    L_3       
     e(  5 -  5) =    -22.65116  eV     1   --> A_1  L_1       
     e(  6 -  6) =     -6.35803  eV     1   --> A_1  L_1       
     e(  7 -  8) =     -6.08092  eV     2   --> E    L_3       
     e(  9 - 10) =     -4.93584  eV     2   --> E    L_3       
     e( 11 - 11) =     -4.71824  eV     1   --> A_1  L_1       
     e( 12 - 12) =      5.31127  eV     1   --> A_1  L_1       
     e( 13 - 14) =      5.71658  eV     2   --> E    L_3       
     e( 15 - 15) =      5.86916  eV     1   --> A_1  L_1       
     e( 16 - 17) =      6.06303  eV     2   --> E    L_3       
     e( 18 - 19) =      9.48002  eV     2   --> E    L_3       
     e( 20 - 20) =      9.63874  eV     1   --> A_2  L_2       
     e( 21 - 21) =     14.01864  eV     1   --> A_1  L_1       
     e( 22 - 23) =     14.04284  eV     2   --> E    L_3       
     e( 24 - 24) =     17.08095  eV     1   -->   ?

 **************************************************************************

 **************************************************************************

                    xk=(   0.42500,   0.42500,   0.42500  )

     Band symmetry, C_3v (3m)   point group:

     e(  1 -  1) =    -46.00983  eV     1   --> A_1  L_1       
     e(  2 -  2) =    -22.68227  eV     1   --> A_1  L_1       
     e(  3 -  4) =    -22.67284  eV     2   --> E    L_3       
     e(  5 -  5) =    -22.65909  eV     1   --> A_1  L_1       
     e(  6 -  6) =     -6.21849  eV     1   --> A_1  L_1       
     e(  7 -  8) =     -6.03695  eV     2   --> E    L_3       
     e(  9 - 10) =     -4.98471  eV     2   --> E    L_3       
     e( 11 - 11) =     -4.83618  eV     1   --> A_1  L_1       
     e( 12 - 12) =      5.21375  eV     1   --> A_1  L_1       
     e( 13 - 14) =      5.64178  eV     2   --> E    L_3       
     e( 15 - 15) =      5.89250  eV     1   --> A_1  L_1       
     e( 16 - 17) =      6.01901  eV     2   --> E    L_3       
     e( 18 - 19) =      9.59538  eV     2   --> E    L_3       
     e( 20 - 20) =      9.69332  eV     1   --> A_2  L_2       
     e( 21 - 21) =     14.11453  eV     1   --> A_1  L_1       
     e( 22 - 23) =     14.13145  eV     2   --> E    L_3       
     e( 24 - 24) =     16.92694  eV     1   -->   ?

 **************************************************************************

 **************************************************************************

                    xk=(   0.45000,   0.45000,   0.45000  )

     Band symmetry, C_3v (3m)   point group:

     e(  1 -  1) =    -46.00968  eV     1   --> A_1  L_1       
     e(  2 -  2) =    -22.67741  eV     1   --> A_1  L_1       
     e(  3 -  4) =    -22.67486  eV     2   --> E    L_3       
     e(  5 -  5) =    -22.66404  eV     1   --> A_1  L_1       
     e(  6 -  6) =     -6.09396  eV     1   --> A_1  L_1       
     e(  7 -  8) =     -6.00044  eV     2   --> E    L_3       
     e(  9 - 10) =     -5.02531  eV     2   --> E    L_3       
     e( 11 - 11) =     -4.94631  eV     1   --> A_1  L_1       
     e( 12 - 12) =      5.13297  eV     1   --> A_1  L_1       
     e( 13 - 14) =      5.58678  eV     2   --> E    L_3       
     e( 15 - 15) =      5.92757  eV     1   --> A_1  L_1       
     e( 16 - 17) =      5.98888  eV     2   --> E    L_3       
     e( 18 - 19) =      9.68712  eV     2   --> E    L_3       
     e( 20 - 20) =      9.73369  eV     1   --> A_2  L_2       
     e( 21 - 21) =     14.18744  eV     1   --> A_1  L_1       
     e( 22 - 23) =     14.19636  eV     2   --> E    L_3       
     e( 24 - 24) =     16.79553  eV     1   -->   ?

 **************************************************************************

 **************************************************************************

                    xk=(   0.47500,   0.47500,   0.47500  )

     Band symmetry, C_3v (3m)   point group:

     e(  1 -  1) =    -46.00959  eV     1   --> A_1  L_1       
     e(  2 -  2) =    -22.67627  eV     1   --> A_1  L_1       
     e(  3 -  4) =    -22.67609  eV     2   --> E    L_3       
     e(  5 -  5) =    -22.66524  eV     1   --> A_1  L_1       
     e(  6 -  6) =     -6.00224  eV     1   --> A_1  L_1       
     e(  7 -  8) =     -5.97594  eV     2   --> E    L_3       
     e(  9 - 10) =     -5.05250  eV     2   --> E    L_3       
     e( 11 - 11) =     -5.02980  eV     1   --> A_1  L_1       
     e( 12 - 12) =      5.08111  eV     1   --> A_1  L_1       
     e( 13 - 14) =      5.55319  eV     2   --> E    L_3       
     e( 15 - 15) =      5.95525  eV     1   --> A_1  L_1       
     e( 16 - 17) =      5.97130  eV     2   --> E    L_3       
     e( 18 - 19) =      9.74635  eV     2   --> E    L_3       
     e( 20 - 20) =      9.75848  eV     1   --> A_2  L_2       
     e( 21 - 21) =     14.23350  eV     1   --> A_1  L_1       
     e( 22 - 23) =     14.23599  eV     2   --> E    L_3       
     e( 24 - 24) =     16.70849  eV     1   -->   ?

 **************************************************************************

 **************************************************************************

                    xk=(   0.50000,   0.50000,   0.50000  )

     point group O_h (m-3m) 
     there are 10 classes
     the character table:

       E     8C3   3C2   6C4   6C2'  i     8S6   3s_h  6S4   6s_d 
A_1g   1.00  1.00  1.00  1.00  1.00  1.00  1.00  1.00  1.00  1.00
A_2g   1.00  1.00  1.00 -1.00 -1.00  1.00  1.00  1.00 -1.00 -1.00
E_g    2.00 -1.00  2.00  0.00  0.00  2.00 -1.00  2.00  0.00  0.00
T_1g   3.00  0.00 -1.00  1.00 -1.00  3.00  0.00 -1.00  1.00 -1.00
T_2g   3.00  0.00 -1.00 -1.00  1.00  3.00  0.00 -1.00 -1.00  1.00
A_1u   1.00  1.00  1.00  1.00  1.00 -1.00 -1.00 -1.00 -1.00 -1.00
A_2u   1.00  1.00  1.00 -1.00 -1.00 -1.00 -1.00 -1.00  1.00  1.00
E_u    2.00 -1.00  2.00  0.00  0.00 -2.00  1.00 -2.00  0.00  0.00
T_1u   3.00  0.00 -1.00  1.00 -1.00 -3.00  0.00  1.00 -1.00  1.00
T_2u   3.00  0.00 -1.00 -1.00  1.00 -3.00  0.00  1.00  1.00 -1.00

     the symmetry operations in each class and the name of the first element:

     E        1
                                                                 
     8C3     17   19   20   18   24   21   22   23
                                                                 
     3C2      2    4    3
                                                                 
     6C4      7    8   15   16   12   11
                                                                 
     6C2'     5    6   14   13   10    9
                                                                 
     i       25
                                                                 
     8S6     41   43   44   42   48   45   46   47
                                                                 
     3s_h    26   28   27
                                                                 
     6S4     31   32   39   40   36   35
                                                                 
     6s_d    29   30   38   37   34   33
                                                                 

     Band symmetry, O_h (m-3m)  point group:

     e(  1 -  1) =    -46.00956  eV     1   --> A_2u G_2'  G_2-
     e(  2 -  4) =    -22.67651  eV     3   --> T_2g G_25' G_5+
     e(  5 -  5) =    -22.66503  eV     1   --> A_1g G_1   G_1+
     e(  6 -  8) =     -5.96726  eV     3   --> T_2g G_25' G_5+
     e(  9 - 11) =     -5.06212  eV     3   --> T_1u G_15  G_4-
     e( 12 - 12) =      5.06334  eV     1   --> A_2u G_2'  G_2-
     e( 13 - 14) =      5.54189  eV     2   --> E_u  G_12' G_3-
     e( 15 - 17) =      5.96553  eV     3   --> T_1u G_15  G_4-
     e( 18 - 20) =      9.76684  eV     3   --> T_2u G_25  G_5-
     e( 21 - 23) =     14.24932  eV     3   --> T_1u G_15  G_4-
     e( 24 - 24) =     16.67812  eV     1   -->   ?

 **************************************************************************
 
     BANDS        :     14.65s CPU     17.39s WALL

 
   This run was terminated on:  18:46:52  30Dec2023            

=------------------------------------------------------------------------------=
   JOB DONE.
=------------------------------------------------------------------------------=
