
     Program PWSCF v.7.2 starts on 30Dec2023 at 18:42:15 

     This program is part of the open-source Quantum ESPRESSO suite
     for quantum simulation of materials; please cite
         "P. Giannozzi et al., J. Phys.:Condens. Matter 21 395502 (2009);
         "P. Giannozzi et al., J. Phys.:Condens. Matter 29 465901 (2017);
         "P. Giannozzi et al., J. Chem. Phys. 152 154105 (2020);
          URL http://www.quantum-espresso.org", 
     in publications or presentations arising from this work. More details at
     http://www.quantum-espresso.org/quote

     Parallel version (MPI), running on     4 processors

     MPI processes distributed on     1 nodes
     5539 MiB available memory on the printing compute node when the environment starts
 
     Waiting for input...
     Reading input from standard input
Warning: card &IONS ignored
Warning: card ION_DYNAMICS = 'BFGS' ignored
Warning: card / ignored
Warning: card &CELL ignored
Warning: card / ignored

     Current dimensions of program PWSCF are:
     Max number of different atomic species (ntypx) = 10
     Max number of k-points (npk) =  40000
     Max angular momentum in pseudopotentials (lmaxx) =  4
     file Sr.pz-spn-kjpaw_psl.1.0.0.UPF: wavefunction(s)  4P renormalized
     file Ti.pz-spn-kjpaw_psl.1.0.0.UPF: wavefunction(s)  3S 3P 3D renormalized

     Atomic positions and unit cell read from directory:
     ./STO/STO.save/
 
 
     R & G space division:  proc/nbgrp/npool/nimage =       4
     Subspace diagonalization in iterative solution of the eigenvalue problem:
     a serial algorithm will be used

 
     Parallelization info
     --------------------
     sticks:   dense  smooth     PW     G-vecs:    dense   smooth      PW
     Min         780     391    109                32547    11573    1779
     Max         782     392    110                32550    11576    1784
     Sum        3125    1565    437               130195    46297    7123
 
     Using Slab Decomposition
 


     bravais-lattice index     =            1
     lattice parameter (alat)  =       7.3624  a.u.
     unit-cell volume          =     399.0740 (a.u.)^3
     number of atoms/cell      =            5
     number of atomic types    =            3
     number of electrons       =        40.00
     number of Kohn-Sham states=           24
     kinetic-energy cutoff     =      90.0000  Ry
     charge density cutoff     =     720.0000  Ry
     Exchange-correlation= LDA
                           (   1   1   0   0   0   0   0)

     celldm(1)=   7.369176  celldm(2)=   0.000000  celldm(3)=   0.000000
     celldm(4)=   0.000000  celldm(5)=   0.000000  celldm(6)=   0.000000

     crystal axes: (cart. coord. in units of alat)
               a(1) = (   1.000000   0.000000   0.000000 )  
               a(2) = (   0.000000   1.000000   0.000000 )  
               a(3) = (   0.000000   0.000000   1.000000 )  

     reciprocal axes: (cart. coord. in units 2 pi/alat)
               b(1) = (  1.000000  0.000000  0.000000 )  
               b(2) = (  0.000000  1.000000  0.000000 )  
               b(3) = (  0.000000  0.000000  1.000000 )  


     PseudoPot. # 1 for Sr read from file:
     ~/q-e/pslibrary/pz/PSEUDOPOTENTIALS/Sr.pz-spn-kjpaw_psl.1.0.0.UPF
     MD5 check sum: Not computed, couldn't open file
     Pseudo is Projector augmented-wave + core cor, Zval = 10.0
     Generated using 'atomic' code by A. Dal Corso  v.7.2
     Shape of augmentation charge: PSQ
     Using radial grid of 1221 points,  6 beta functions with: 
                l(1) =   0
                l(2) =   0
                l(3) =   1
                l(4) =   1
                l(5) =   2
                l(6) =   2
     Q(r) pseudized with 0 coefficients 


     PseudoPot. # 2 for Ti read from file:
     ~/q-e/pslibrary/pz/PSEUDOPOTENTIALS/Ti.pz-spn-kjpaw_psl.1.0.0.UPF
     MD5 check sum: Not computed, couldn't open file
     Pseudo is Projector augmented-wave + core cor, Zval = 12.0
     Generated using 'atomic' code by A. Dal Corso  v.7.2
     Shape of augmentation charge: PSQ
     Using radial grid of 1177 points,  6 beta functions with: 
                l(1) =   0
                l(2) =   0
                l(3) =   1
                l(4) =   1
                l(5) =   2
                l(6) =   2
     Q(r) pseudized with 0 coefficients 


     PseudoPot. # 3 for O  read from file:
     ~/q-e/pslibrary/pz/PSEUDOPOTENTIALS/O.pz-n-rrkjus_psl.1.0.0.UPF
     MD5 check sum: Not computed, couldn't open file
     Pseudo is Ultrasoft + core correction, Zval =  6.0
     Generated using 'atomic' code by A. Dal Corso  v.7.2
     Using radial grid of 1095 points,  4 beta functions with: 
                l(1) =   0
                l(2) =   0
                l(3) =   1
                l(4) =   1
     Q(r) pseudized with 0 coefficients 


     atomic species   valence    mass     pseudopotential
     Sr               10.00    87.62000     Sr( 1.00)
     Ti               12.00    47.86700     Ti( 1.00)
     O                 6.00    15.99900     O ( 1.00)

     48 Sym. Ops., with inversion, found


                                    s                        frac. trans.

      isym =  1     identity                                     

 cryst.   s( 1) = (     1          0          0      )
                  (     0          1          0      )
                  (     0          0          1      )

 cart.    s( 1) = (  1.0000000  0.0000000  0.0000000 )
                  (  0.0000000  1.0000000  0.0000000 )
                  (  0.0000000  0.0000000  1.0000000 )


      isym =  2     180 deg rotation - cart. axis [0,0,1]        

 cryst.   s( 2) = (    -1          0          0      )
                  (     0         -1          0      )
                  (     0          0          1      )

 cart.    s( 2) = ( -1.0000000  0.0000000  0.0000000 )
                  (  0.0000000 -1.0000000  0.0000000 )
                  (  0.0000000  0.0000000  1.0000000 )


      isym =  3     180 deg rotation - cart. axis [0,1,0]        

 cryst.   s( 3) = (    -1          0          0      )
                  (     0          1          0      )
                  (     0          0         -1      )

 cart.    s( 3) = ( -1.0000000  0.0000000  0.0000000 )
                  (  0.0000000  1.0000000  0.0000000 )
                  (  0.0000000  0.0000000 -1.0000000 )


      isym =  4     180 deg rotation - cart. axis [1,0,0]        

 cryst.   s( 4) = (     1          0          0      )
                  (     0         -1          0      )
                  (     0          0         -1      )

 cart.    s( 4) = (  1.0000000  0.0000000  0.0000000 )
                  (  0.0000000 -1.0000000  0.0000000 )
                  (  0.0000000  0.0000000 -1.0000000 )


      isym =  5     180 deg rotation - cart. axis [1,1,0]        

 cryst.   s( 5) = (     0          1          0      )
                  (     1          0          0      )
                  (     0          0         -1      )

 cart.    s( 5) = (  0.0000000  1.0000000  0.0000000 )
                  (  1.0000000  0.0000000  0.0000000 )
                  (  0.0000000  0.0000000 -1.0000000 )


      isym =  6     180 deg rotation - cart. axis [1,-1,0]       

 cryst.   s( 6) = (     0         -1          0      )
                  (    -1          0          0      )
                  (     0          0         -1      )

 cart.    s( 6) = (  0.0000000 -1.0000000  0.0000000 )
                  ( -1.0000000  0.0000000  0.0000000 )
                  (  0.0000000  0.0000000 -1.0000000 )


      isym =  7      90 deg rotation - cart. axis [0,0,-1]       

 cryst.   s( 7) = (     0         -1          0      )
                  (     1          0          0      )
                  (     0          0          1      )

 cart.    s( 7) = (  0.0000000  1.0000000  0.0000000 )
                  ( -1.0000000  0.0000000  0.0000000 )
                  (  0.0000000  0.0000000  1.0000000 )


      isym =  8      90 deg rotation - cart. axis [0,0,1]        

 cryst.   s( 8) = (     0          1          0      )
                  (    -1          0          0      )
                  (     0          0          1      )

 cart.    s( 8) = (  0.0000000 -1.0000000  0.0000000 )
                  (  1.0000000  0.0000000  0.0000000 )
                  (  0.0000000  0.0000000  1.0000000 )


      isym =  9     180 deg rotation - cart. axis [1,0,1]        

 cryst.   s( 9) = (     0          0          1      )
                  (     0         -1          0      )
                  (     1          0          0      )

 cart.    s( 9) = (  0.0000000  0.0000000  1.0000000 )
                  (  0.0000000 -1.0000000  0.0000000 )
                  (  1.0000000  0.0000000  0.0000000 )


      isym = 10     180 deg rotation - cart. axis [-1,0,1]       

 cryst.   s(10) = (     0          0         -1      )
                  (     0         -1          0      )
                  (    -1          0          0      )

 cart.    s(10) = (  0.0000000  0.0000000 -1.0000000 )
                  (  0.0000000 -1.0000000  0.0000000 )
                  ( -1.0000000  0.0000000  0.0000000 )


      isym = 11      90 deg rotation - cart. axis [0,1,0]        

 cryst.   s(11) = (     0          0         -1      )
                  (     0          1          0      )
                  (     1          0          0      )

 cart.    s(11) = (  0.0000000  0.0000000  1.0000000 )
                  (  0.0000000  1.0000000  0.0000000 )
                  ( -1.0000000  0.0000000  0.0000000 )


      isym = 12      90 deg rotation - cart. axis [0,-1,0]       

 cryst.   s(12) = (     0          0          1      )
                  (     0          1          0      )
                  (    -1          0          0      )

 cart.    s(12) = (  0.0000000  0.0000000 -1.0000000 )
                  (  0.0000000  1.0000000  0.0000000 )
                  (  1.0000000  0.0000000  0.0000000 )


      isym = 13     180 deg rotation - cart. axis [0,1,1]        

 cryst.   s(13) = (    -1          0          0      )
                  (     0          0          1      )
                  (     0          1          0      )

 cart.    s(13) = ( -1.0000000  0.0000000  0.0000000 )
                  (  0.0000000  0.0000000  1.0000000 )
                  (  0.0000000  1.0000000  0.0000000 )


      isym = 14     180 deg rotation - cart. axis [0,1,-1]       

 cryst.   s(14) = (    -1          0          0      )
                  (     0          0         -1      )
                  (     0         -1          0      )

 cart.    s(14) = ( -1.0000000  0.0000000  0.0000000 )
                  (  0.0000000  0.0000000 -1.0000000 )
                  (  0.0000000 -1.0000000  0.0000000 )


      isym = 15      90 deg rotation - cart. axis [-1,0,0]       

 cryst.   s(15) = (     1          0          0      )
                  (     0          0         -1      )
                  (     0          1          0      )

 cart.    s(15) = (  1.0000000  0.0000000  0.0000000 )
                  (  0.0000000  0.0000000  1.0000000 )
                  (  0.0000000 -1.0000000  0.0000000 )


      isym = 16      90 deg rotation - cart. axis [1,0,0]        

 cryst.   s(16) = (     1          0          0      )
                  (     0          0          1      )
                  (     0         -1          0      )

 cart.    s(16) = (  1.0000000  0.0000000  0.0000000 )
                  (  0.0000000  0.0000000 -1.0000000 )
                  (  0.0000000  1.0000000  0.0000000 )


      isym = 17     120 deg rotation - cart. axis [-1,-1,-1]     

 cryst.   s(17) = (     0          0          1      )
                  (     1          0          0      )
                  (     0          1          0      )

 cart.    s(17) = (  0.0000000  1.0000000  0.0000000 )
                  (  0.0000000  0.0000000  1.0000000 )
                  (  1.0000000  0.0000000  0.0000000 )


      isym = 18     120 deg rotation - cart. axis [-1,1,1]       

 cryst.   s(18) = (     0          0         -1      )
                  (    -1          0          0      )
                  (     0          1          0      )

 cart.    s(18) = (  0.0000000 -1.0000000  0.0000000 )
                  (  0.0000000  0.0000000  1.0000000 )
                  ( -1.0000000  0.0000000  0.0000000 )


      isym = 19     120 deg rotation - cart. axis [1,1,-1]       

 cryst.   s(19) = (     0          0         -1      )
                  (     1          0          0      )
                  (     0         -1          0      )

 cart.    s(19) = (  0.0000000  1.0000000  0.0000000 )
                  (  0.0000000  0.0000000 -1.0000000 )
                  ( -1.0000000  0.0000000  0.0000000 )


      isym = 20     120 deg rotation - cart. axis [1,-1,1]       

 cryst.   s(20) = (     0          0          1      )
                  (    -1          0          0      )
                  (     0         -1          0      )

 cart.    s(20) = (  0.0000000 -1.0000000  0.0000000 )
                  (  0.0000000  0.0000000 -1.0000000 )
                  (  1.0000000  0.0000000  0.0000000 )


      isym = 21     120 deg rotation - cart. axis [1,1,1]        

 cryst.   s(21) = (     0          1          0      )
                  (     0          0          1      )
                  (     1          0          0      )

 cart.    s(21) = (  0.0000000  0.0000000  1.0000000 )
                  (  1.0000000  0.0000000  0.0000000 )
                  (  0.0000000  1.0000000  0.0000000 )


      isym = 22     120 deg rotation - cart. axis [-1,1,-1]      

 cryst.   s(22) = (     0         -1          0      )
                  (     0          0         -1      )
                  (     1          0          0      )

 cart.    s(22) = (  0.0000000  0.0000000  1.0000000 )
                  ( -1.0000000  0.0000000  0.0000000 )
                  (  0.0000000 -1.0000000  0.0000000 )


      isym = 23     120 deg rotation - cart. axis [1,-1,-1]      

 cryst.   s(23) = (     0         -1          0      )
                  (     0          0          1      )
                  (    -1          0          0      )

 cart.    s(23) = (  0.0000000  0.0000000 -1.0000000 )
                  ( -1.0000000  0.0000000  0.0000000 )
                  (  0.0000000  1.0000000  0.0000000 )


      isym = 24     120 deg rotation - cart. axis [-1,-1,1]      

 cryst.   s(24) = (     0          1          0      )
                  (     0          0         -1      )
                  (    -1          0          0      )

 cart.    s(24) = (  0.0000000  0.0000000 -1.0000000 )
                  (  1.0000000  0.0000000  0.0000000 )
                  (  0.0000000 -1.0000000  0.0000000 )


      isym = 25     inversion                                    

 cryst.   s(25) = (    -1          0          0      )
                  (     0         -1          0      )
                  (     0          0         -1      )

 cart.    s(25) = ( -1.0000000  0.0000000  0.0000000 )
                  (  0.0000000 -1.0000000  0.0000000 )
                  (  0.0000000  0.0000000 -1.0000000 )


      isym = 26     inv. 180 deg rotation - cart. axis [0,0,1]   

 cryst.   s(26) = (     1          0          0      )
                  (     0          1          0      )
                  (     0          0         -1      )

 cart.    s(26) = (  1.0000000  0.0000000  0.0000000 )
                  (  0.0000000  1.0000000  0.0000000 )
                  (  0.0000000  0.0000000 -1.0000000 )


      isym = 27     inv. 180 deg rotation - cart. axis [0,1,0]   

 cryst.   s(27) = (     1          0          0      )
                  (     0         -1          0      )
                  (     0          0          1      )

 cart.    s(27) = (  1.0000000  0.0000000  0.0000000 )
                  (  0.0000000 -1.0000000  0.0000000 )
                  (  0.0000000  0.0000000  1.0000000 )


      isym = 28     inv. 180 deg rotation - cart. axis [1,0,0]   

 cryst.   s(28) = (    -1          0          0      )
                  (     0          1          0      )
                  (     0          0          1      )

 cart.    s(28) = ( -1.0000000  0.0000000  0.0000000 )
                  (  0.0000000  1.0000000  0.0000000 )
                  (  0.0000000  0.0000000  1.0000000 )


      isym = 29     inv. 180 deg rotation - cart. axis [1,1,0]   

 cryst.   s(29) = (     0         -1          0      )
                  (    -1          0          0      )
                  (     0          0          1      )

 cart.    s(29) = (  0.0000000 -1.0000000  0.0000000 )
                  ( -1.0000000  0.0000000  0.0000000 )
                  (  0.0000000  0.0000000  1.0000000 )


      isym = 30     inv. 180 deg rotation - cart. axis [1,-1,0]  

 cryst.   s(30) = (     0          1          0      )
                  (     1          0          0      )
                  (     0          0          1      )

 cart.    s(30) = (  0.0000000  1.0000000  0.0000000 )
                  (  1.0000000  0.0000000  0.0000000 )
                  (  0.0000000  0.0000000  1.0000000 )


      isym = 31     inv.  90 deg rotation - cart. axis [0,0,-1]  

 cryst.   s(31) = (     0          1          0      )
                  (    -1          0          0      )
                  (     0          0         -1      )

 cart.    s(31) = (  0.0000000 -1.0000000  0.0000000 )
                  (  1.0000000  0.0000000  0.0000000 )
                  (  0.0000000  0.0000000 -1.0000000 )


      isym = 32     inv.  90 deg rotation - cart. axis [0,0,1]   

 cryst.   s(32) = (     0         -1          0      )
                  (     1          0          0      )
                  (     0          0         -1      )

 cart.    s(32) = (  0.0000000  1.0000000  0.0000000 )
                  ( -1.0000000  0.0000000  0.0000000 )
                  (  0.0000000  0.0000000 -1.0000000 )


      isym = 33     inv. 180 deg rotation - cart. axis [1,0,1]   

 cryst.   s(33) = (     0          0         -1      )
                  (     0          1          0      )
                  (    -1          0          0      )

 cart.    s(33) = (  0.0000000  0.0000000 -1.0000000 )
                  (  0.0000000  1.0000000  0.0000000 )
                  ( -1.0000000  0.0000000  0.0000000 )


      isym = 34     inv. 180 deg rotation - cart. axis [-1,0,1]  

 cryst.   s(34) = (     0          0          1      )
                  (     0          1          0      )
                  (     1          0          0      )

 cart.    s(34) = (  0.0000000  0.0000000  1.0000000 )
                  (  0.0000000  1.0000000  0.0000000 )
                  (  1.0000000  0.0000000  0.0000000 )


      isym = 35     inv.  90 deg rotation - cart. axis [0,1,0]   

 cryst.   s(35) = (     0          0          1      )
                  (     0         -1          0      )
                  (    -1          0          0      )

 cart.    s(35) = (  0.0000000  0.0000000 -1.0000000 )
                  (  0.0000000 -1.0000000  0.0000000 )
                  (  1.0000000  0.0000000  0.0000000 )


      isym = 36     inv.  90 deg rotation - cart. axis [0,-1,0]  

 cryst.   s(36) = (     0          0         -1      )
                  (     0         -1          0      )
                  (     1          0          0      )

 cart.    s(36) = (  0.0000000  0.0000000  1.0000000 )
                  (  0.0000000 -1.0000000  0.0000000 )
                  ( -1.0000000  0.0000000  0.0000000 )


      isym = 37     inv. 180 deg rotation - cart. axis [0,1,1]   

 cryst.   s(37) = (     1          0          0      )
                  (     0          0         -1      )
                  (     0         -1          0      )

 cart.    s(37) = (  1.0000000  0.0000000  0.0000000 )
                  (  0.0000000  0.0000000 -1.0000000 )
                  (  0.0000000 -1.0000000  0.0000000 )


      isym = 38     inv. 180 deg rotation - cart. axis [0,1,-1]  

 cryst.   s(38) = (     1          0          0      )
                  (     0          0          1      )
                  (     0          1          0      )

 cart.    s(38) = (  1.0000000  0.0000000  0.0000000 )
                  (  0.0000000  0.0000000  1.0000000 )
                  (  0.0000000  1.0000000  0.0000000 )


      isym = 39     inv.  90 deg rotation - cart. axis [-1,0,0]  

 cryst.   s(39) = (    -1          0          0      )
                  (     0          0          1      )
                  (     0         -1          0      )

 cart.    s(39) = ( -1.0000000  0.0000000  0.0000000 )
                  (  0.0000000  0.0000000 -1.0000000 )
                  (  0.0000000  1.0000000  0.0000000 )


      isym = 40     inv.  90 deg rotation - cart. axis [1,0,0]   

 cryst.   s(40) = (    -1          0          0      )
                  (     0          0         -1      )
                  (     0          1          0      )

 cart.    s(40) = ( -1.0000000  0.0000000  0.0000000 )
                  (  0.0000000  0.0000000  1.0000000 )
                  (  0.0000000 -1.0000000  0.0000000 )


      isym = 41     inv. 120 deg rotation - cart. axis [-1,-1,-1]

 cryst.   s(41) = (     0          0         -1      )
                  (    -1          0          0      )
                  (     0         -1          0      )

 cart.    s(41) = (  0.0000000 -1.0000000  0.0000000 )
                  (  0.0000000  0.0000000 -1.0000000 )
                  ( -1.0000000  0.0000000  0.0000000 )


      isym = 42     inv. 120 deg rotation - cart. axis [-1,1,1]  

 cryst.   s(42) = (     0          0          1      )
                  (     1          0          0      )
                  (     0         -1          0      )

 cart.    s(42) = (  0.0000000  1.0000000  0.0000000 )
                  (  0.0000000  0.0000000 -1.0000000 )
                  (  1.0000000  0.0000000  0.0000000 )


      isym = 43     inv. 120 deg rotation - cart. axis [1,1,-1]  

 cryst.   s(43) = (     0          0          1      )
                  (    -1          0          0      )
                  (     0          1          0      )

 cart.    s(43) = (  0.0000000 -1.0000000  0.0000000 )
                  (  0.0000000  0.0000000  1.0000000 )
                  (  1.0000000  0.0000000  0.0000000 )


      isym = 44     inv. 120 deg rotation - cart. axis [1,-1,1]  

 cryst.   s(44) = (     0          0         -1      )
                  (     1          0          0      )
                  (     0          1          0      )

 cart.    s(44) = (  0.0000000  1.0000000  0.0000000 )
                  (  0.0000000  0.0000000  1.0000000 )
                  ( -1.0000000  0.0000000  0.0000000 )


      isym = 45     inv. 120 deg rotation - cart. axis [1,1,1]   

 cryst.   s(45) = (     0         -1          0      )
                  (     0          0         -1      )
                  (    -1          0          0      )

 cart.    s(45) = (  0.0000000  0.0000000 -1.0000000 )
                  ( -1.0000000  0.0000000  0.0000000 )
                  (  0.0000000 -1.0000000  0.0000000 )


      isym = 46     inv. 120 deg rotation - cart. axis [-1,1,-1] 

 cryst.   s(46) = (     0          1          0      )
                  (     0          0          1      )
                  (    -1          0          0      )

 cart.    s(46) = (  0.0000000  0.0000000 -1.0000000 )
                  (  1.0000000  0.0000000  0.0000000 )
                  (  0.0000000  1.0000000  0.0000000 )


      isym = 47     inv. 120 deg rotation - cart. axis [1,-1,-1] 

 cryst.   s(47) = (     0          1          0      )
                  (     0          0         -1      )
                  (     1          0          0      )

 cart.    s(47) = (  0.0000000  0.0000000  1.0000000 )
                  (  1.0000000  0.0000000  0.0000000 )
                  (  0.0000000 -1.0000000  0.0000000 )


      isym = 48     inv. 120 deg rotation - cart. axis [-1,-1,1] 

 cryst.   s(48) = (     0         -1          0      )
                  (     0          0          1      )
                  (     1          0          0      )

 cart.    s(48) = (  0.0000000  0.0000000  1.0000000 )
                  ( -1.0000000  0.0000000  0.0000000 )
                  (  0.0000000  1.0000000  0.0000000 )


     point group O_h (m-3m) 
     there are 10 classes
     the character table:

       E     8C3   3C2   6C4   6C2'  i     8S6   3s_h  6S4   6s_d 
A_1g   1.00  1.00  1.00  1.00  1.00  1.00  1.00  1.00  1.00  1.00
A_2g   1.00  1.00  1.00 -1.00 -1.00  1.00  1.00  1.00 -1.00 -1.00
E_g    2.00 -1.00  2.00  0.00  0.00  2.00 -1.00  2.00  0.00  0.00
T_1g   3.00  0.00 -1.00  1.00 -1.00  3.00  0.00 -1.00  1.00 -1.00
T_2g   3.00  0.00 -1.00 -1.00  1.00  3.00  0.00 -1.00 -1.00  1.00
A_1u   1.00  1.00  1.00  1.00  1.00 -1.00 -1.00 -1.00 -1.00 -1.00
A_2u   1.00  1.00  1.00 -1.00 -1.00 -1.00 -1.00 -1.00  1.00  1.00
E_u    2.00 -1.00  2.00  0.00  0.00 -2.00  1.00 -2.00  0.00  0.00
T_1u   3.00  0.00 -1.00  1.00 -1.00 -3.00  0.00  1.00 -1.00  1.00
T_2u   3.00  0.00 -1.00 -1.00  1.00 -3.00  0.00  1.00  1.00 -1.00

     the symmetry operations in each class and the name of the first element:

     E        1
          identity                                               
     8C3     17   19   20   18   24   21   22   23
          120 deg rotation - cart. axis [-1,-1,-1]               
     3C2      2    4    3
          180 deg rotation - cart. axis [0,0,1]                  
     6C4      7    8   15   16   12   11
           90 deg rotation - cart. axis [0,0,-1]                 
     6C2'     5    6   14   13   10    9
          180 deg rotation - cart. axis [1,1,0]                  
     i       25
          inversion                                              
     8S6     41   43   44   42   48   45   46   47
          inv. 120 deg rotation - cart. axis [-1,-1,-1]          
     3s_h    26   28   27
          inv. 180 deg rotation - cart. axis [0,0,1]             
     6S4     31   32   39   40   36   35
          inv.  90 deg rotation - cart. axis [0,0,-1]            
     6s_d    29   30   38   37   34   33
          inv. 180 deg rotation - cart. axis [1,1,0]             

   Cartesian axes

     site n.     atom                  positions (alat units)
         1        Ti     tau(   1) = (   0.5000000   0.5000000   0.5000000  )
         2        Sr     tau(   2) = (   0.0000000   0.0000000   0.0000000  )
         3        O      tau(   3) = (   0.5000000   0.5000000   0.0000000  )
         4        O      tau(   4) = (   0.0000000   0.5000000   0.5000000  )
         5        O      tau(   5) = (   0.5000000   0.0000000   0.5000000  )

   Crystallographic axes

     site n.     atom                  positions (cryst. coord.)
         1        Ti     tau(   1) = (  0.5000000  0.5000000  0.5000000  )
         2        Sr     tau(   2) = (  0.0000000  0.0000000  0.0000000  )
         3        O      tau(   3) = (  0.5000000  0.5000000  0.0000000  )
         4        O      tau(   4) = (  0.0000000  0.5000000  0.5000000  )
         5        O      tau(   5) = (  0.5000000  0.0000000  0.5000000  )

     number of k points=    81  Methfessel-Paxton smearing, width (Ry)=  0.0100
                       cart. coord. in units 2pi/alat
        k(    1) = (   0.0000000   0.0000000   0.0000000), wk =   0.0246914
        k(    2) = (   0.0250000   0.0250000   0.0000000), wk =   0.0246914
        k(    3) = (   0.0500000   0.0500000   0.0000000), wk =   0.0246914
        k(    4) = (   0.0750000   0.0750000   0.0000000), wk =   0.0246914
        k(    5) = (   0.1000000   0.1000000   0.0000000), wk =   0.0246914
        k(    6) = (   0.1250000   0.1250000   0.0000000), wk =   0.0246914
        k(    7) = (   0.1500000   0.1500000   0.0000000), wk =   0.0246914
        k(    8) = (   0.1750000   0.1750000   0.0000000), wk =   0.0246914
        k(    9) = (   0.2000000   0.2000000   0.0000000), wk =   0.0246914
        k(   10) = (   0.2250000   0.2250000   0.0000000), wk =   0.0246914
        k(   11) = (   0.2500000   0.2500000   0.0000000), wk =   0.0246914
        k(   12) = (   0.2750000   0.2750000   0.0000000), wk =   0.0246914
        k(   13) = (   0.3000000   0.3000000   0.0000000), wk =   0.0246914
        k(   14) = (   0.3250000   0.3250000   0.0000000), wk =   0.0246914
        k(   15) = (   0.3500000   0.3500000   0.0000000), wk =   0.0246914
        k(   16) = (   0.3750000   0.3750000   0.0000000), wk =   0.0246914
        k(   17) = (   0.4000000   0.4000000   0.0000000), wk =   0.0246914
        k(   18) = (   0.4250000   0.4250000   0.0000000), wk =   0.0246914
        k(   19) = (   0.4500000   0.4500000   0.0000000), wk =   0.0246914
        k(   20) = (   0.4750000   0.4750000   0.0000000), wk =   0.0246914
        k(   21) = (   0.5000000   0.5000000   0.0000000), wk =   0.0246914
        k(   22) = (   0.4750000   0.5000000   0.0000000), wk =   0.0246914
        k(   23) = (   0.4500000   0.5000000   0.0000000), wk =   0.0246914
        k(   24) = (   0.4250000   0.5000000   0.0000000), wk =   0.0246914
        k(   25) = (   0.4000000   0.5000000   0.0000000), wk =   0.0246914
        k(   26) = (   0.3750000   0.5000000   0.0000000), wk =   0.0246914
        k(   27) = (   0.3500000   0.5000000   0.0000000), wk =   0.0246914
        k(   28) = (   0.3250000   0.5000000   0.0000000), wk =   0.0246914
        k(   29) = (   0.3000000   0.5000000   0.0000000), wk =   0.0246914
        k(   30) = (   0.2750000   0.5000000   0.0000000), wk =   0.0246914
        k(   31) = (   0.2500000   0.5000000   0.0000000), wk =   0.0246914
        k(   32) = (   0.2250000   0.5000000   0.0000000), wk =   0.0246914
        k(   33) = (   0.2000000   0.5000000   0.0000000), wk =   0.0246914
        k(   34) = (   0.1750000   0.5000000   0.0000000), wk =   0.0246914
        k(   35) = (   0.1500000   0.5000000   0.0000000), wk =   0.0246914
        k(   36) = (   0.1250000   0.5000000   0.0000000), wk =   0.0246914
        k(   37) = (   0.1000000   0.5000000   0.0000000), wk =   0.0246914
        k(   38) = (   0.0750000   0.5000000   0.0000000), wk =   0.0246914
        k(   39) = (   0.0500000   0.5000000   0.0000000), wk =   0.0246914
        k(   40) = (   0.0250000   0.5000000   0.0000000), wk =   0.0246914
        k(   41) = (   0.0000000   0.5000000   0.0000000), wk =   0.0246914
        k(   42) = (   0.0000000   0.4750000   0.0000000), wk =   0.0246914
        k(   43) = (   0.0000000   0.4500000   0.0000000), wk =   0.0246914
        k(   44) = (   0.0000000   0.4250000   0.0000000), wk =   0.0246914
        k(   45) = (   0.0000000   0.4000000   0.0000000), wk =   0.0246914
        k(   46) = (   0.0000000   0.3750000   0.0000000), wk =   0.0246914
        k(   47) = (   0.0000000   0.3500000   0.0000000), wk =   0.0246914
        k(   48) = (   0.0000000   0.3250000   0.0000000), wk =   0.0246914
        k(   49) = (   0.0000000   0.3000000   0.0000000), wk =   0.0246914
        k(   50) = (   0.0000000   0.2750000   0.0000000), wk =   0.0246914
        k(   51) = (   0.0000000   0.2500000   0.0000000), wk =   0.0246914
        k(   52) = (   0.0000000   0.2250000   0.0000000), wk =   0.0246914
        k(   53) = (   0.0000000   0.2000000   0.0000000), wk =   0.0246914
        k(   54) = (   0.0000000   0.1750000   0.0000000), wk =   0.0246914
        k(   55) = (   0.0000000   0.1500000   0.0000000), wk =   0.0246914
        k(   56) = (   0.0000000   0.1250000   0.0000000), wk =   0.0246914
        k(   57) = (   0.0000000   0.1000000   0.0000000), wk =   0.0246914
        k(   58) = (   0.0000000   0.0750000   0.0000000), wk =   0.0246914
        k(   59) = (   0.0000000   0.0500000   0.0000000), wk =   0.0246914
        k(   60) = (   0.0000000   0.0250000   0.0000000), wk =   0.0246914
        k(   61) = (   0.0000000   0.0000000   0.0000000), wk =   0.0246914
        k(   62) = (   0.0250000   0.0250000   0.0250000), wk =   0.0246914
        k(   63) = (   0.0500000   0.0500000   0.0500000), wk =   0.0246914
        k(   64) = (   0.0750000   0.0750000   0.0750000), wk =   0.0246914
        k(   65) = (   0.1000000   0.1000000   0.1000000), wk =   0.0246914
        k(   66) = (   0.1250000   0.1250000   0.1250000), wk =   0.0246914
        k(   67) = (   0.1500000   0.1500000   0.1500000), wk =   0.0246914
        k(   68) = (   0.1750000   0.1750000   0.1750000), wk =   0.0246914
        k(   69) = (   0.2000000   0.2000000   0.2000000), wk =   0.0246914
        k(   70) = (   0.2250000   0.2250000   0.2250000), wk =   0.0246914
        k(   71) = (   0.2500000   0.2500000   0.2500000), wk =   0.0246914
        k(   72) = (   0.2750000   0.2750000   0.2750000), wk =   0.0246914
        k(   73) = (   0.3000000   0.3000000   0.3000000), wk =   0.0246914
        k(   74) = (   0.3250000   0.3250000   0.3250000), wk =   0.0246914
        k(   75) = (   0.3500000   0.3500000   0.3500000), wk =   0.0246914
        k(   76) = (   0.3750000   0.3750000   0.3750000), wk =   0.0246914
        k(   77) = (   0.4000000   0.4000000   0.4000000), wk =   0.0246914
        k(   78) = (   0.4250000   0.4250000   0.4250000), wk =   0.0246914
        k(   79) = (   0.4500000   0.4500000   0.4500000), wk =   0.0246914
        k(   80) = (   0.4750000   0.4750000   0.4750000), wk =   0.0246914
        k(   81) = (   0.5000000   0.5000000   0.5000000), wk =   0.0246914

                       cryst. coord.
        k(    1) = (   0.0000000   0.0000000   0.0000000), wk =   0.0246914
        k(    2) = (   0.0250000   0.0250000   0.0000000), wk =   0.0246914
        k(    3) = (   0.0500000   0.0500000   0.0000000), wk =   0.0246914
        k(    4) = (   0.0750000   0.0750000   0.0000000), wk =   0.0246914
        k(    5) = (   0.1000000   0.1000000   0.0000000), wk =   0.0246914
        k(    6) = (   0.1250000   0.1250000   0.0000000), wk =   0.0246914
        k(    7) = (   0.1500000   0.1500000   0.0000000), wk =   0.0246914
        k(    8) = (   0.1750000   0.1750000   0.0000000), wk =   0.0246914
        k(    9) = (   0.2000000   0.2000000   0.0000000), wk =   0.0246914
        k(   10) = (   0.2250000   0.2250000   0.0000000), wk =   0.0246914
        k(   11) = (   0.2500000   0.2500000   0.0000000), wk =   0.0246914
        k(   12) = (   0.2750000   0.2750000   0.0000000), wk =   0.0246914
        k(   13) = (   0.3000000   0.3000000   0.0000000), wk =   0.0246914
        k(   14) = (   0.3250000   0.3250000   0.0000000), wk =   0.0246914
        k(   15) = (   0.3500000   0.3500000   0.0000000), wk =   0.0246914
        k(   16) = (   0.3750000   0.3750000   0.0000000), wk =   0.0246914
        k(   17) = (   0.4000000   0.4000000   0.0000000), wk =   0.0246914
        k(   18) = (   0.4250000   0.4250000   0.0000000), wk =   0.0246914
        k(   19) = (   0.4500000   0.4500000   0.0000000), wk =   0.0246914
        k(   20) = (   0.4750000   0.4750000   0.0000000), wk =   0.0246914
        k(   21) = (   0.5000000   0.5000000   0.0000000), wk =   0.0246914
        k(   22) = (   0.4750000   0.5000000   0.0000000), wk =   0.0246914
        k(   23) = (   0.4500000   0.5000000   0.0000000), wk =   0.0246914
        k(   24) = (   0.4250000   0.5000000   0.0000000), wk =   0.0246914
        k(   25) = (   0.4000000   0.5000000   0.0000000), wk =   0.0246914
        k(   26) = (   0.3750000   0.5000000   0.0000000), wk =   0.0246914
        k(   27) = (   0.3500000   0.5000000   0.0000000), wk =   0.0246914
        k(   28) = (   0.3250000   0.5000000   0.0000000), wk =   0.0246914
        k(   29) = (   0.3000000   0.5000000   0.0000000), wk =   0.0246914
        k(   30) = (   0.2750000   0.5000000   0.0000000), wk =   0.0246914
        k(   31) = (   0.2500000   0.5000000   0.0000000), wk =   0.0246914
        k(   32) = (   0.2250000   0.5000000   0.0000000), wk =   0.0246914
        k(   33) = (   0.2000000   0.5000000   0.0000000), wk =   0.0246914
        k(   34) = (   0.1750000   0.5000000   0.0000000), wk =   0.0246914
        k(   35) = (   0.1500000   0.5000000   0.0000000), wk =   0.0246914
        k(   36) = (   0.1250000   0.5000000   0.0000000), wk =   0.0246914
        k(   37) = (   0.1000000   0.5000000   0.0000000), wk =   0.0246914
        k(   38) = (   0.0750000   0.5000000   0.0000000), wk =   0.0246914
        k(   39) = (   0.0500000   0.5000000   0.0000000), wk =   0.0246914
        k(   40) = (   0.0250000   0.5000000   0.0000000), wk =   0.0246914
        k(   41) = (   0.0000000   0.5000000   0.0000000), wk =   0.0246914
        k(   42) = (   0.0000000   0.4750000   0.0000000), wk =   0.0246914
        k(   43) = (   0.0000000   0.4500000   0.0000000), wk =   0.0246914
        k(   44) = (   0.0000000   0.4250000   0.0000000), wk =   0.0246914
        k(   45) = (   0.0000000   0.4000000   0.0000000), wk =   0.0246914
        k(   46) = (   0.0000000   0.3750000   0.0000000), wk =   0.0246914
        k(   47) = (   0.0000000   0.3500000   0.0000000), wk =   0.0246914
        k(   48) = (   0.0000000   0.3250000   0.0000000), wk =   0.0246914
        k(   49) = (   0.0000000   0.3000000   0.0000000), wk =   0.0246914
        k(   50) = (   0.0000000   0.2750000   0.0000000), wk =   0.0246914
        k(   51) = (   0.0000000   0.2500000   0.0000000), wk =   0.0246914
        k(   52) = (   0.0000000   0.2250000   0.0000000), wk =   0.0246914
        k(   53) = (   0.0000000   0.2000000   0.0000000), wk =   0.0246914
        k(   54) = (   0.0000000   0.1750000   0.0000000), wk =   0.0246914
        k(   55) = (   0.0000000   0.1500000   0.0000000), wk =   0.0246914
        k(   56) = (   0.0000000   0.1250000   0.0000000), wk =   0.0246914
        k(   57) = (   0.0000000   0.1000000   0.0000000), wk =   0.0246914
        k(   58) = (   0.0000000   0.0750000   0.0000000), wk =   0.0246914
        k(   59) = (   0.0000000   0.0500000   0.0000000), wk =   0.0246914
        k(   60) = (   0.0000000   0.0250000   0.0000000), wk =   0.0246914
        k(   61) = (   0.0000000   0.0000000   0.0000000), wk =   0.0246914
        k(   62) = (   0.0250000   0.0250000   0.0250000), wk =   0.0246914
        k(   63) = (   0.0500000   0.0500000   0.0500000), wk =   0.0246914
        k(   64) = (   0.0750000   0.0750000   0.0750000), wk =   0.0246914
        k(   65) = (   0.1000000   0.1000000   0.1000000), wk =   0.0246914
        k(   66) = (   0.1250000   0.1250000   0.1250000), wk =   0.0246914
        k(   67) = (   0.1500000   0.1500000   0.1500000), wk =   0.0246914
        k(   68) = (   0.1750000   0.1750000   0.1750000), wk =   0.0246914
        k(   69) = (   0.2000000   0.2000000   0.2000000), wk =   0.0246914
        k(   70) = (   0.2250000   0.2250000   0.2250000), wk =   0.0246914
        k(   71) = (   0.2500000   0.2500000   0.2500000), wk =   0.0246914
        k(   72) = (   0.2750000   0.2750000   0.2750000), wk =   0.0246914
        k(   73) = (   0.3000000   0.3000000   0.3000000), wk =   0.0246914
        k(   74) = (   0.3250000   0.3250000   0.3250000), wk =   0.0246914
        k(   75) = (   0.3500000   0.3500000   0.3500000), wk =   0.0246914
        k(   76) = (   0.3750000   0.3750000   0.3750000), wk =   0.0246914
        k(   77) = (   0.4000000   0.4000000   0.4000000), wk =   0.0246914
        k(   78) = (   0.4250000   0.4250000   0.4250000), wk =   0.0246914
        k(   79) = (   0.4500000   0.4500000   0.4500000), wk =   0.0246914
        k(   80) = (   0.4750000   0.4750000   0.4750000), wk =   0.0246914
        k(   81) = (   0.5000000   0.5000000   0.5000000), wk =   0.0246914

     Dense  grid:   130195 G-vectors     FFT dimensions: (  64,  64,  64)

     Smooth grid:    46297 G-vectors     FFT dimensions: (  45,  45,  45)

     Dynamical RAM for                 wfc:       0.53 MB

     Dynamical RAM for     wfc (w. buffer):       0.53 MB

     Dynamical RAM for           str. fact:       1.49 MB

     Dynamical RAM for           local pot:       0.00 MB

     Dynamical RAM for          nlocal pot:       1.32 MB

     Dynamical RAM for                qrad:       6.46 MB

     Dynamical RAM for          rho,v,vnew:       2.99 MB

     Dynamical RAM for           G-vectors:       1.95 MB

     Dynamical RAM for          h,s,v(r/c):       0.11 MB

     Dynamical RAM for          <psi|beta>:       0.02 MB

     Dynamical RAM for                 psi:       1.05 MB

     Dynamical RAM for                hpsi:       1.05 MB

     Dynamical RAM for                spsi:       1.05 MB

     Dynamical RAM for      wfcinit/wfcrot:       1.34 MB

     Dynamical RAM for           addusdens:      93.87 MB

     Estimated static dynamical RAM per process >      19.22 MB

     Estimated max dynamical RAM per process >     113.09 MB

     Estimated total dynamical RAM >     452.36 MB

     The potential is recalculated from file :
     ./STO/STO.save/charge-density

     Starting wfcs are   30 randomized atomic wfcs
     Checking if some PAW data can be deallocated... 
       PAW data deallocated on    3 nodes for type:  1
       PAW data deallocated on    3 nodes for type:  2

     Band Structure Calculation
     Davidson diagonalization with overlap

     Computing kpt #:     1  of    81
     total cpu time spent up to now is        0.7 secs

     Computing kpt #:     2  of    81
     c_bands:  1 eigenvalues not converged
     total cpu time spent up to now is        1.1 secs

     Computing kpt #:     3  of    81
     total cpu time spent up to now is        1.3 secs

     Computing kpt #:     4  of    81
     total cpu time spent up to now is        1.7 secs

     Computing kpt #:     5  of    81
     total cpu time spent up to now is        2.0 secs

     Computing kpt #:     6  of    81
     total cpu time spent up to now is        2.2 secs

     Computing kpt #:     7  of    81
     total cpu time spent up to now is        2.5 secs

     Computing kpt #:     8  of    81
     total cpu time spent up to now is        2.8 secs

     Computing kpt #:     9  of    81
     total cpu time spent up to now is        3.0 secs

     Computing kpt #:    10  of    81
     total cpu time spent up to now is        3.3 secs

     Computing kpt #:    11  of    81
     total cpu time spent up to now is        3.5 secs

     Computing kpt #:    12  of    81
     total cpu time spent up to now is        3.8 secs

     Computing kpt #:    13  of    81
     total cpu time spent up to now is        4.0 secs

     Computing kpt #:    14  of    81
     total cpu time spent up to now is        4.3 secs

     Computing kpt #:    15  of    81
     total cpu time spent up to now is        4.5 secs

     Computing kpt #:    16  of    81
     total cpu time spent up to now is        4.7 secs

     Computing kpt #:    17  of    81
     total cpu time spent up to now is        5.0 secs

     Computing kpt #:    18  of    81
     total cpu time spent up to now is        5.2 secs

     Computing kpt #:    19  of    81
     total cpu time spent up to now is        5.4 secs

     Computing kpt #:    20  of    81
     total cpu time spent up to now is        5.7 secs

     Computing kpt #:    21  of    81
     total cpu time spent up to now is        5.9 secs

     Computing kpt #:    22  of    81
     total cpu time spent up to now is        6.1 secs

     Computing kpt #:    23  of    81
     total cpu time spent up to now is        6.4 secs

     Computing kpt #:    24  of    81
     total cpu time spent up to now is        6.6 secs

     Computing kpt #:    25  of    81
     total cpu time spent up to now is        6.8 secs

     Computing kpt #:    26  of    81
     total cpu time spent up to now is        7.1 secs

     Computing kpt #:    27  of    81
     total cpu time spent up to now is        7.3 secs

     Computing kpt #:    28  of    81
     total cpu time spent up to now is        7.5 secs

     Computing kpt #:    29  of    81
     total cpu time spent up to now is        7.8 secs

     Computing kpt #:    30  of    81
     total cpu time spent up to now is        8.0 secs

     Computing kpt #:    31  of    81
     total cpu time spent up to now is        8.3 secs

     Computing kpt #:    32  of    81
     total cpu time spent up to now is        8.5 secs

     Computing kpt #:    33  of    81
     total cpu time spent up to now is        8.8 secs

     Computing kpt #:    34  of    81
     total cpu time spent up to now is        9.0 secs

     Computing kpt #:    35  of    81
     total cpu time spent up to now is        9.2 secs

     Computing kpt #:    36  of    81
     total cpu time spent up to now is        9.5 secs

     Computing kpt #:    37  of    81
     total cpu time spent up to now is        9.7 secs

     Computing kpt #:    38  of    81
     total cpu time spent up to now is       10.0 secs

     Computing kpt #:    39  of    81
     total cpu time spent up to now is       10.2 secs

     Computing kpt #:    40  of    81
     total cpu time spent up to now is       10.5 secs

     Computing kpt #:    41  of    81
     total cpu time spent up to now is       10.7 secs

     Computing kpt #:    42  of    81
     total cpu time spent up to now is       10.9 secs

     Computing kpt #:    43  of    81
     total cpu time spent up to now is       11.2 secs

     Computing kpt #:    44  of    81
     total cpu time spent up to now is       11.4 secs

     Computing kpt #:    45  of    81
     total cpu time spent up to now is       11.7 secs

     Computing kpt #:    46  of    81
     total cpu time spent up to now is       11.9 secs

     Computing kpt #:    47  of    81
     total cpu time spent up to now is       12.2 secs

     Computing kpt #:    48  of    81
     total cpu time spent up to now is       12.4 secs

     Computing kpt #:    49  of    81
     total cpu time spent up to now is       12.7 secs

     Computing kpt #:    50  of    81
     total cpu time spent up to now is       12.9 secs

     Computing kpt #:    51  of    81
     total cpu time spent up to now is       13.2 secs

     Computing kpt #:    52  of    81
     total cpu time spent up to now is       13.4 secs

     Computing kpt #:    53  of    81
     total cpu time spent up to now is       13.7 secs

     Computing kpt #:    54  of    81
     total cpu time spent up to now is       14.0 secs

     Computing kpt #:    55  of    81
     total cpu time spent up to now is       14.2 secs

     Computing kpt #:    56  of    81
     total cpu time spent up to now is       14.5 secs

     Computing kpt #:    57  of    81
     total cpu time spent up to now is       14.8 secs

     Computing kpt #:    58  of    81
     total cpu time spent up to now is       15.1 secs

     Computing kpt #:    59  of    81
     total cpu time spent up to now is       15.4 secs

     Computing kpt #:    60  of    81
     c_bands:  1 eigenvalues not converged
     total cpu time spent up to now is       15.8 secs

     Computing kpt #:    61  of    81
     total cpu time spent up to now is       16.0 secs

     Computing kpt #:    62  of    81
     total cpu time spent up to now is       16.3 secs

     Computing kpt #:    63  of    81
     total cpu time spent up to now is       16.6 secs

     Computing kpt #:    64  of    81
     total cpu time spent up to now is       16.8 secs

     Computing kpt #:    65  of    81
     total cpu time spent up to now is       17.1 secs

     Computing kpt #:    66  of    81
     total cpu time spent up to now is       17.4 secs

     Computing kpt #:    67  of    81
     total cpu time spent up to now is       17.6 secs

     Computing kpt #:    68  of    81
     total cpu time spent up to now is       17.9 secs

     Computing kpt #:    69  of    81
     total cpu time spent up to now is       18.2 secs

     Computing kpt #:    70  of    81
     total cpu time spent up to now is       18.4 secs

     Computing kpt #:    71  of    81
     total cpu time spent up to now is       18.7 secs

     Computing kpt #:    72  of    81
     total cpu time spent up to now is       18.9 secs

     Computing kpt #:    73  of    81
     total cpu time spent up to now is       19.3 secs

     Computing kpt #:    74  of    81
     total cpu time spent up to now is       19.6 secs

     Computing kpt #:    75  of    81
     c_bands:  1 eigenvalues not converged
     total cpu time spent up to now is       20.1 secs

     Computing kpt #:    76  of    81
     c_bands:  1 eigenvalues not converged
     total cpu time spent up to now is       20.5 secs

     Computing kpt #:    77  of    81
     c_bands:  1 eigenvalues not converged
     total cpu time spent up to now is       20.9 secs

     Computing kpt #:    78  of    81
     total cpu time spent up to now is       21.2 secs

     Computing kpt #:    79  of    81
     total cpu time spent up to now is       21.6 secs

     Computing kpt #:    80  of    81
     total cpu time spent up to now is       21.9 secs

     Computing kpt #:    81  of    81
     total cpu time spent up to now is       22.2 secs

     ethr =  2.50E-11,  avg # of iterations = 58.7

     total cpu time spent up to now is       22.2 secs

     End of band structure calculation

          k = 0.0000 0.0000 0.0000 (  5743 PWs)   bands (ev):

   -46.0144 -22.7316 -22.6082 -22.6082 -22.6082  -7.3973  -6.3656  -6.3656
    -4.7686  -4.7686  -4.7686   6.9347   6.9347   6.9347   8.5655   8.5655
     8.5655   9.4279   9.4279   9.4279  11.5396  11.5396  11.5396  14.1724

          k = 0.0250 0.0250 0.0000 (  5733 PWs)   bands (ev):

   -46.0144 -22.7328 -22.6086 -22.6081 -22.6071  -7.3975  -6.3670  -6.3657
    -4.7679  -4.7654  -4.7604   6.9184   6.9321   6.9335   8.5342   8.5469
     8.5657   9.3919   9.4078   9.4170  11.5548  11.5604  11.5731  14.1839

          k = 0.0500 0.0500 0.0000 (  5731 PWs)   bands (ev):

   -46.0144 -22.7362 -22.6100 -22.6080 -22.6041  -7.3980  -6.3711  -6.3654
    -4.7661  -4.7560  -4.7369   6.8705   6.9236   6.9299   8.4434   8.4931
     8.5663   9.2911   9.3506   9.3851  11.5994  11.6208  11.6661  14.2172

          k = 0.0750 0.0750 0.0000 (  5739 PWs)   bands (ev):

   -46.0143 -22.7410 -22.6121 -22.6078 -22.5998  -7.3987  -6.3777  -6.3634
    -4.7630  -4.7406  -4.7004   6.7941   6.9075   6.9241   8.3019   8.4092
     8.5679   9.1421   9.2645   9.3344  11.6708  11.7152  11.8019  14.2691

          k = 0.1000 0.1000 0.0000 (  5735 PWs)   bands (ev):

   -46.0141 -22.7468 -22.6151 -22.6075 -22.5949  -7.3990  -6.3866  -6.3583
    -4.7587  -4.7198  -4.6545   6.6937   6.8812   6.9164   8.1203   8.3022
     8.5705   8.9631   9.1617   9.2678  11.7655  11.8365  11.9635  14.3351

          k = 0.1250 0.1250 0.0000 (  5755 PWs)   bands (ev):

   -46.0140 -22.7527 -22.6188 -22.6072 -22.5901  -7.3983  -6.3972  -6.3487
    -4.7533  -4.6941  -4.6032   6.5746   6.8415   6.9072   7.9090   8.1790
     8.5724   8.7709   9.0571   9.1887  11.8794  11.9770  12.1381  14.4109

          k = 0.1500 0.1500 0.0000 (  5760 PWs)   bands (ev):

   -46.0138 -22.7581 -22.6232 -22.6068 -22.5859  -7.3954  -6.4093  -6.3342
    -4.7470  -4.6643  -4.5505   6.4426   6.7856   6.8969   7.6762   8.0458
     8.5673   8.5794   8.9691   9.0999  12.0086  12.1297  12.3177  14.4923

          k = 0.1750 0.1750 0.0000 (  5750 PWs)   bands (ev):

   -46.0136 -22.7627 -22.6281 -22.6064 -22.5828  -7.3891  -6.4223  -6.3151
    -4.7397  -4.6312  -4.5000   6.3026   6.7115   6.8860   7.4286   7.9081
     8.4008   8.5441   8.9182   9.0041  12.1493  12.2888  12.4977  14.5760

          k = 0.2000 0.2000 0.0000 (  5742 PWs)   bands (ev):

   -46.0133 -22.7661 -22.6333 -22.6059 -22.5810  -7.3779  -6.4358  -6.2928
    -4.7318  -4.5957  -4.4543   6.1592   6.6193   6.8750   7.1717   7.7700
     8.2443   8.4983   8.9039   8.9152  12.2979  12.4492  12.6756  14.6591

          k = 0.2250 0.2250 0.0000 (  5742 PWs)   bands (ev):

   -46.0131 -22.7681 -22.6389 -22.6054 -22.5810  -7.3604  -6.4495  -6.2694
    -4.7232  -4.5585  -4.4154   6.0157   6.5111   6.8643   6.9107   7.6348
     8.1166   8.4405   8.8013   8.9517  12.4510  12.6068  12.8497  14.7391

          k = 0.2500 0.2500 0.0000 (  5752 PWs)   bands (ev):

   -46.0128 -22.7683 -22.6445 -22.6049 -22.5827  -7.3353  -6.4630  -6.2477
    -4.7143  -4.5207  -4.3840   5.8750   6.3907   6.6511   6.8544   7.5053
     8.0217   8.3834   8.6985   9.0139  12.6052  12.7584  13.0189  14.8143

          k = 0.2750 0.2750 0.0000 (  5764 PWs)   bands (ev):

   -46.0126 -22.7668 -22.6502 -22.6044 -22.5862  -7.3016  -6.4759  -6.2308
    -4.7052  -4.4830  -4.3597   5.7390   6.2632   6.3981   6.8456   7.3834
     7.9608   8.3333   8.5973   9.0920  12.7574  12.9014  13.1816  14.8835

          k = 0.3000 0.3000 0.0000 (  5748 PWs)   bands (ev):

   -46.0123 -22.7635 -22.6557 -22.6039 -22.5916  -7.2588  -6.4881  -6.2220
    -4.6961  -4.4463  -4.3416   5.6097   6.1339   6.1572   6.8381   7.2709
     7.9325   8.2919   8.4997   9.1794  12.9044  13.0335  13.3362  14.9456

          k = 0.3250 0.3250 0.0000 (  5760 PWs)   bands (ev):

   -46.0121 -22.7584 -22.6610 -22.6035 -22.5988  -7.2066  -6.4992  -6.2242
    -4.6874  -4.4116  -4.3281   5.4884   5.9333   6.0082   6.8320   7.1691
     7.9334   8.2590   8.4076   9.2708  13.0430  13.1531  13.4804  15.0002

          k = 0.3500 0.3500 0.0000 (  5756 PWs)   bands (ev):

   -46.0118 -22.7516 -22.6658 -22.6077 -22.6030  -7.1454  -6.5092  -6.2397
    -4.6792  -4.3795  -4.3173   5.3764   5.7316   5.8904   6.8275   7.0790
     7.9579   8.2336   8.3228   9.3615  13.1703  13.2589  13.6120  15.0468

          k = 0.3750 0.3750 0.0000 (  5748 PWs)   bands (ev):

   -46.0117 -22.7431 -22.6701 -22.6180 -22.6027  -7.0757  -6.5178  -6.2697
    -4.6718  -4.3509  -4.3081   5.2744   5.5571   5.7846   6.8245   7.0015
     7.9990   8.2144   8.2472   9.4472  13.2835  13.3498  13.7283  15.0856

          k = 0.4000 0.4000 0.0000 (  5746 PWs)   bands (ev):

   -46.0115 -22.7331 -22.6738 -22.6295 -22.6023  -6.9991  -6.5250  -6.3141
    -4.6653  -4.3264  -4.2997   5.1832   5.4144   5.6938   6.8226   6.9373
     8.0487   8.1825   8.2004   9.5236  13.3801  13.4251  13.8270  15.1166

          k = 0.4250 0.4250 0.0000 (  5764 PWs)   bands (ev):

   -46.0114 -22.7219 -22.6767 -22.6421 -22.6021  -6.9174  -6.5307  -6.3712
    -4.6601  -4.3067  -4.2922   5.1042   5.3063   5.6206   6.8217   6.8868
     8.0986   8.1302   8.1905   9.5873  13.4577  13.4842  13.9058  15.1401

          k = 0.4500 0.4500 0.0000 (  5768 PWs)   bands (ev):

   -46.0113 -22.7096 -22.6789 -22.6553 -22.6019  -6.8344  -6.5348  -6.4371
    -4.6563  -4.2922  -4.2860   5.0415   5.2327   5.5671   6.8214   6.8505
     8.0918   8.1410   8.1840   9.6352  13.5145  13.5267  13.9631  15.1565

          k = 0.4750 0.4750 0.0000 (  5776 PWs)   bands (ev):

   -46.0112 -22.6966 -22.6802 -22.6689 -22.6018  -6.7586  -6.5373  -6.5030
    -4.6539  -4.2834  -4.2819   5.0008   5.1904   5.5344   6.8213   6.8287
     8.0683   8.1693   8.1804   9.6649  13.5492  13.5523  13.9979  15.1662

          k = 0.5000 0.5000 0.0000 (  5824 PWs)   bands (ev):

   -46.0112 -22.6851 -22.6807 -22.6807 -22.6018  -6.7202  -6.5382  -6.5382
    -4.6531  -4.2804  -4.2804   4.9867   5.1767   5.5234   6.8214   6.8214
     8.0604   8.1792   8.1792   9.6750  13.5609  13.5609  14.0096  15.1694

          k = 0.4750 0.5000 0.0000 (  5776 PWs)   bands (ev):

   -46.0112 -22.6929 -22.6802 -22.6730 -22.6018  -6.7413  -6.5355  -6.5209
    -4.6535  -4.2825  -4.2805   4.9938   5.1834   5.5290   6.8220   6.8244
     8.0643   8.1751   8.1789   9.6699  13.5508  13.5608  14.0038  15.1678

          k = 0.4500 0.5000 0.0000 (  5780 PWs)   bands (ev):

   -46.0112 -22.7026 -22.6788 -22.6637 -22.6018  -6.7902  -6.5276  -6.4836
    -4.6547  -4.2889  -4.2807   5.0152   5.2021   5.5468   6.8237   6.8334
     8.0762   8.1628   8.1782   9.6546  13.5210  13.5605  13.9867  15.1629

          k = 0.4250 0.5000 0.0000 (  5762 PWs)   bands (ev):

   -46.0113 -22.7124 -22.6766 -22.6546 -22.6019  -6.8510  -6.5145  -6.4420
    -4.6566  -4.2994  -4.2806   5.0506   5.2286   5.5801   6.8266   6.8483
     8.0961   8.1427   8.1774   9.6287  13.4720  13.5602  13.9596  15.1546

          k = 0.4000 0.5000 0.0000 (  5766 PWs)   bands (ev):

   -46.0113 -22.7221 -22.6735 -22.6457 -22.6020  -6.9170  -6.4964  -6.4025
    -4.6593  -4.3138  -4.2798   5.0999   5.2575   5.6326   6.8304   6.8686
     8.1152   8.1238   8.1773   9.5918  13.4048  13.5597  13.9240  15.1423

          k = 0.3750 0.5000 0.0000 (  5750 PWs)   bands (ev):

   -46.0114 -22.7318 -22.6697 -22.6372 -22.6022  -6.9855  -6.4736  -6.3676
    -4.6626  -4.3321  -4.2777   5.1629   5.2835   5.7073   6.8349   6.8941
     8.0810   8.1594   8.1791   9.5433  13.3209  13.5590  13.8820  15.1255

          k = 0.3500 0.5000 0.0000 (  5756 PWs)   bands (ev):

   -46.0115 -22.7412 -22.6652 -22.6291 -22.6024  -7.0549  -6.4464  -6.3385
    -4.6664  -4.3539  -4.2738   5.2391   5.3045   5.8033   6.8400   6.9241
     8.0409   8.1840   8.2026   9.4824  13.2220  13.5583  13.8363  15.1034

          k = 0.3250 0.5000 0.0000 (  5762 PWs)   bands (ev):

   -46.0116 -22.7504 -22.6602 -22.6214 -22.6026  -7.1240  -6.4152  -6.3155
    -4.6707  -4.3790  -4.2678   5.3206   5.3281   5.9168   6.8454   6.9581
     7.9959   8.1941   8.2533   9.4087  13.1100  13.5576  13.7892  15.0752

          k = 0.3000 0.5000 0.0000 (  5750 PWs)   bands (ev):

   -46.0117 -22.7593 -22.6547 -22.6142 -22.6028  -7.1919  -6.3806  -6.2987
    -4.6754  -4.4069  -4.2593   5.3329   5.4296   6.0422   6.8508   6.9952
     7.9471   8.2116   8.3110   9.3215  12.9872  13.5568  13.7432  15.0395

          k = 0.2750 0.5000 0.0000 (  5746 PWs)   bands (ev):

   -46.0119 -22.7677 -22.6489 -22.6074 -22.6031  -7.2577  -6.3431  -6.2877
    -4.6802  -4.4373  -4.2485   5.3426   5.5428   6.1734   6.8562   7.0346
     7.8957   8.2391   8.3752   9.2209  12.8558  13.5560  13.7002  14.9952

          k = 0.2500 0.5000 0.0000 (  5758 PWs)   bands (ev):

   -46.0120 -22.7757 -22.6430 -22.6033 -22.6012  -7.3206  -6.3034  -6.2818
    -4.6852  -4.4695  -4.2354   5.3505   5.6671   6.3040   6.8614   7.0754
     7.8429   8.2793   8.4451   9.1067  12.7184  13.5552  13.6620  14.9409

          k = 0.2250 0.5000 0.0000 (  5756 PWs)   bands (ev):

   -46.0121 -22.7831 -22.6371 -22.6036 -22.5955  -7.3800  -6.2804  -6.2623
    -4.6902  -4.5031  -4.2206   5.3572   5.8019   6.4278   6.8662   7.1167
     7.7899   8.3346   8.5196   8.9795  12.5777  13.5545  13.6296  14.8756

          k = 0.2000 0.5000 0.0000 (  5750 PWs)   bands (ev):

   -46.0122 -22.7900 -22.6313 -22.6038 -22.5904  -7.4352  -6.2825  -6.2207
    -4.6951  -4.5372  -4.2046   5.3631   5.9464   6.5395   6.8706   7.1575
     7.7380   8.4064   8.5975   8.8402  12.4366  13.5539  13.6035  14.7987

          k = 0.1750 0.5000 0.0000 (  5742 PWs)   bands (ev):

   -46.0124 -22.7961 -22.6257 -22.6040 -22.5858  -7.4856  -6.2870  -6.1795
    -4.6997  -4.5712  -4.1882   5.3682   6.0997   6.6352   6.8744   7.1966
     7.6882   8.4941   8.6769   8.6900  12.2982  13.5534  13.5837  14.7111

          k = 0.1500 0.5000 0.0000 (  5748 PWs)   bands (ev):

   -46.0125 -22.8016 -22.6206 -22.6042 -22.5818  -7.5305  -6.2932  -6.1400
    -4.7039  -4.6040  -4.1721   5.3727   6.2607   6.7133   6.8778   7.2330
     7.6417   8.5306   8.5944   8.7558  12.1658  13.5530  13.5697  14.6149

          k = 0.1250 0.5000 0.0000 (  5756 PWs)   bands (ev):

   -46.0126 -22.8063 -22.6161 -22.6044 -22.5784  -7.5694  -6.3000  -6.1032
    -4.7077  -4.6347  -4.1570   5.3767   6.4283   6.7740   6.8806   7.2659
     7.5988   8.3643   8.7014   8.8313  12.0432  13.5526  13.5606  14.5146

          k = 0.1000 0.5000 0.0000 (  5750 PWs)   bands (ev):

   -46.0126 -22.8102 -22.6122 -22.6046 -22.5756  -7.6019  -6.3067  -6.0706
    -4.7109  -4.6620  -4.1436   5.3800   6.6009   6.8191   6.8829   7.2941
     7.5597   8.1942   8.8071   8.9005  11.9343  13.5524  13.5554  14.4164

          k = 0.0750 0.5000 0.0000 (  5750 PWs)   bands (ev):

   -46.0127 -22.8133 -22.6090 -22.6047 -22.5735  -7.6276  -6.3126  -6.0434
    -4.7135  -4.6850  -4.1325   5.3827   6.7765   6.8508   6.8847   7.3171
     7.5225   8.0258   8.9025   8.9599  11.8434  13.5522  13.5529  14.3279

          k = 0.0500 0.5000 0.0000 (  5754 PWs)   bands (ev):

   -46.0128 -22.8155 -22.6067 -22.6048 -22.5719  -7.6462  -6.3171  -6.0229
    -4.7153  -4.7023  -4.1242   5.3847   6.8715   6.8859   6.9517   7.3339
     7.4805   7.8702   8.9786   9.0057  11.7746  13.5521  13.5521  14.2572

          k = 0.0250 0.5000 0.0000 (  5742 PWs)   bands (ev):

   -46.0128 -22.8169 -22.6053 -22.6048 -22.5710  -7.6575  -6.3201  -6.0102
    -4.7165  -4.7132  -4.1191   5.3859   6.8832   6.8867   7.1181   7.3443
     7.4171   7.7534   9.0278   9.0348  11.7316  13.5519  13.5520  14.2114

          k = 0.0000 0.5000 0.0000 (  5750 PWs)   bands (ev):

   -46.0128 -22.8173 -22.6049 -22.6049 -22.5707  -7.6612  -6.3210  -6.0058
    -4.7169  -4.7169  -4.1174   5.3863   6.8869   6.8869   7.2260   7.3477
     7.3477   7.7102   9.0448   9.0448  11.7169  13.5520  13.5520  14.1955

          k = 0.0000 0.4750 0.0000 (  5738 PWs)   bands (ev):

   -46.0128 -22.8168 -22.6049 -22.6049 -22.5709  -7.6589  -6.3213  -6.0100
    -4.7172  -4.7172  -4.1205   5.3966   6.8863   6.8863   7.2346   7.3546
     7.3546   7.7147   9.0462   9.0462  11.7158  13.5413  13.5413  14.1954

          k = 0.0000 0.4500 0.0000 (  5762 PWs)   bands (ev):

   -46.0128 -22.8154 -22.6050 -22.6050 -22.5715  -7.6521  -6.3221  -6.0223
    -4.7182  -4.7182  -4.1299   5.4271   6.8846   6.8846   7.2604   7.3750
     7.3750   7.7280   9.0505   9.0505  11.7123  13.5097  13.5097  14.1952

          k = 0.0000 0.4250 0.0000 (  5758 PWs)   bands (ev):

   -46.0129 -22.8130 -22.6051 -22.6051 -22.5724  -7.6409  -6.3235  -6.0422
    -4.7197  -4.7197  -4.1453   5.4770   6.8824   6.8824   7.3034   7.4080
     7.4080   7.7500   9.0576   9.0576  11.7068  13.4577  13.4577  14.1949

          k = 0.0000 0.4000 0.0000 (  5762 PWs)   bands (ev):

   -46.0130 -22.8097 -22.6052 -22.6052 -22.5738  -7.6257  -6.3253  -6.0688
    -4.7219  -4.7219  -4.1668   5.5448   6.8804   6.8804   7.3636   7.4525
     7.4525   7.7804   9.0674   9.0674  11.6992  13.3864  13.3864  14.1944

          k = 0.0000 0.3750 0.0000 (  5750 PWs)   bands (ev):

   -46.0130 -22.8057 -22.6054 -22.6054 -22.5754  -7.6070  -6.3276  -6.1008
    -4.7245  -4.7245  -4.1940   5.6285   6.8791   6.8791   7.4409   7.5076
     7.5076   7.8185   9.0800   9.0800  11.6898  13.2971  13.2971  14.1937

          k = 0.0000 0.3500 0.0000 (  5754 PWs)   bands (ev):

   -46.0131 -22.8008 -22.6056 -22.6056 -22.5774  -7.5854  -6.3303  -6.1367
    -4.7276  -4.7276  -4.2266   5.7259   6.8790   6.8790   7.5350   7.5719
     7.5719   7.8640   9.0952   9.0952  11.6788  13.1917  13.1917  14.1929

          k = 0.0000 0.3250 0.0000 (  5730 PWs)   bands (ev):

   -46.0133 -22.7954 -22.6058 -22.6058 -22.5796  -7.5617  -6.3333  -6.1749
    -4.7311  -4.7311  -4.2642   5.8340   6.8803   6.8803   7.6444   7.6444
     7.6457   7.9159   9.1129   9.1129  11.6666  13.0721  13.0721  14.1920

          k = 0.0000 0.3000 0.0000 (  5746 PWs)   bands (ev):

   -46.0134 -22.7895 -22.6060 -22.6060 -22.5821  -7.5366  -6.3365  -6.2136
    -4.7349  -4.7349  -4.3063   5.9498   6.8829   6.8829   7.7240   7.7240
     7.7724   7.9733   9.1330   9.1330  11.6535  12.9405  12.9405  14.1909

          k = 0.0000 0.2750 0.0000 (  5730 PWs)   bands (ev):

   -46.0135 -22.7831 -22.6063 -22.6063 -22.5848  -7.5114  -6.3400  -6.2510
    -4.7388  -4.7388  -4.3520   6.0703   6.8867   6.8867   7.8095   7.8095
     7.9141   8.0352   9.1554   9.1554  11.6399  12.7994  12.7994  14.1897

          k = 0.0000 0.2500 0.0000 (  5750 PWs)   bands (ev):

   -46.0136 -22.7766 -22.6065 -22.6065 -22.5876  -7.4870  -6.3434  -6.2854
    -4.7429  -4.7429  -4.4007   6.1921   6.8915   6.8915   7.8996   7.8996
     8.0694   8.1003   9.1798   9.1798  11.6259  12.6512  12.6512  14.1883

          k = 0.0000 0.2250 0.0000 (  5730 PWs)   bands (ev):

   -46.0138 -22.7699 -22.6068 -22.6068 -22.5905  -7.4645  -6.3469  -6.3152
    -4.7469  -4.7469  -4.4512   6.3122   6.8970   6.8970   7.9925   7.9925
     8.1672   8.2360   9.2062   9.2062  11.6122  12.4988  12.4988  14.1868

          k = 0.0000 0.2000 0.0000 (  5738 PWs)   bands (ev):

   -46.0139 -22.7633 -22.6070 -22.6070 -22.5934  -7.4449  -6.3503  -6.3393
    -4.7509  -4.7509  -4.5026   6.4277   6.9030   6.9030   8.0865   8.0865
     8.2343   8.4110   9.2343   9.2343  11.5988  12.3450  12.3450  14.1851

          k = 0.0000 0.1750 0.0000 (  5750 PWs)   bands (ev):

   -46.0140 -22.7570 -22.6073 -22.6073 -22.5962  -7.4287  -6.3569  -6.3535
    -4.7546  -4.7546  -4.5535   6.5361   6.9091   6.9091   8.1794   8.1794
     8.2999   8.5904   9.2639   9.2639  11.5862  12.1933  12.1933  14.1833

          k = 0.0000 0.1500 0.0000 (  5758 PWs)   bands (ev):

   -46.0141 -22.7510 -22.6075 -22.6075 -22.5989  -7.4164  -6.3681  -6.3565
    -4.7580  -4.7580  -4.6025   6.6351   6.9150   6.9150   8.2684   8.2684
     8.3621   8.7691   9.2946   9.2946  11.5747  12.0471  12.0471  14.1813

          k = 0.0000 0.1250 0.0000 (  5746 PWs)   bands (ev):

   -46.0142 -22.7455 -22.6077 -22.6077 -22.6015  -7.4078  -6.3734  -6.3591
    -4.7611  -4.7611  -4.6480   6.7226   6.9205   6.9205   8.3509   8.3509
     8.4191   8.9409   9.3257   9.3257  11.5644  11.9106  11.9106  14.1793

          k = 0.0000 0.1000 0.0000 (  5731 PWs)   bands (ev):

   -46.0143 -22.7408 -22.6079 -22.6079 -22.6037  -7.4023  -6.3743  -6.3614
    -4.7637  -4.7637  -4.6884   6.7967   6.9254   6.9254   8.4236   8.4236
     8.4689   9.0986   9.3562   9.3562  11.5558  11.7882  11.7882  14.1773

          k = 0.0000 0.0750 0.0000 (  5739 PWs)   bands (ev):

   -46.0144 -22.7369 -22.6080 -22.6080 -22.6056  -7.3993  -6.3723  -6.3632
    -4.7658  -4.7658  -4.7221   6.8561   6.9293   6.9293   8.4837   8.4837
     8.5099   9.2339   9.3841   9.3841  11.5488  11.6850  11.6850  14.1754

          k = 0.0000 0.0500 0.0000 (  5731 PWs)   bands (ev):

   -46.0144 -22.7340 -22.6081 -22.6081 -22.6070  -7.3979  -6.3692  -6.3645
    -4.7673  -4.7673  -4.7474   6.8995   6.9323   6.9323   8.5285   8.5285
     8.5404   9.3386   9.4071   9.4071  11.5437  11.6062  11.6062  14.1738

          k = 0.0000 0.0250 0.0000 (  5743 PWs)   bands (ev):

   -46.0144 -22.7322 -22.6082 -22.6082 -22.6079  -7.3974  -6.3666  -6.3653
    -4.7683  -4.7683  -4.7632   6.9259   6.9341   6.9341   8.5562   8.5562
     8.5592   9.4051   9.4225   9.4225  11.5406  11.5566  11.5566  14.1728

          k = 0.0000 0.0000 0.0000 (  5743 PWs)   bands (ev):

   -46.0144 -22.7316 -22.6082 -22.6082 -22.6082  -7.3973  -6.3656  -6.3656
    -4.7686  -4.7686  -4.7686   6.9347   6.9347   6.9347   8.5655   8.5655
     8.5655   9.4279   9.4279   9.4279  11.5396  11.5396  11.5396  14.1724

          k = 0.0250 0.0250 0.0250 (  5737 PWs)   bands (ev):

   -46.0144 -22.7334 -22.6086 -22.6086 -22.6063  -7.3975  -6.3667  -6.3667
    -4.7651  -4.7651  -4.7576   6.9109   6.9315   6.9315   8.5251   8.5251
     8.5721   9.3785   9.4027   9.4027  11.5686  11.5768  11.5768  14.2059

          k = 0.0500 0.0500 0.0500 (  5731 PWs)   bands (ev):

   -46.0143 -22.7381 -22.6099 -22.6099 -22.6015  -7.3976  -6.3697  -6.3697
    -4.7552  -4.7552  -4.7259   6.8413   6.9214   6.9214   8.4106   8.4106
     8.5918   9.2388   9.3331   9.3331  11.6501  11.6797  11.6797  14.3040

          k = 0.0750 0.0750 0.0750 (  5728 PWs)   bands (ev):

   -46.0142 -22.7443 -22.6120 -22.6120 -22.5949  -7.3957  -6.3738  -6.3738
    -4.7403  -4.7403  -4.6765   6.7310   6.9031   6.9031   8.2390   8.2390
     8.6242   9.0292   9.2336   9.2336  11.7727  11.8284  11.8284  14.4595

          k = 0.1000 0.1000 0.1000 (  5734 PWs)   bands (ev):

   -46.0140 -22.7507 -22.6148 -22.6148 -22.5882  -7.3892  -6.3777  -6.3777
    -4.7223  -4.7223  -4.6141   6.5879   6.8745   6.8745   8.0307   8.0307
     8.6688   8.7711   9.1200   9.1200  11.9252  12.0035  12.0035  14.6629

          k = 0.1250 0.1250 0.1250 (  5749 PWs)   bands (ev):

   -46.0137 -22.7561 -22.6183 -22.6183 -22.5826  -7.3751  -6.3800  -6.3800
    -4.7039  -4.7039  -4.5447   6.4222   6.8329   6.8329   7.8039   7.8039
     8.4825   8.7247   9.0072   9.0072  12.0993  12.1913  12.1913  14.9039

          k = 0.1500 0.1500 0.1500 (  5758 PWs)   bands (ev):

   -46.0134 -22.7596 -22.6225 -22.6225 -22.5788  -7.3507  -6.3794  -6.3794
    -4.6876  -4.6876  -4.4747   6.2454   6.7756   6.7756   7.5724   7.5724
     8.1766   8.7910   8.9085   8.9085  12.2885  12.3841  12.3841  15.1725

          k = 0.1750 0.1750 0.1750 (  5764 PWs)   bands (ev):

   -46.0131 -22.7609 -22.6271 -22.6271 -22.5774  -7.3136  -6.3745  -6.3745
    -4.6760  -4.6760  -4.4105   6.0695   6.7009   6.7009   7.3454   7.3454
     7.8627   8.8352   8.8352   8.8663  12.4874  12.5778  12.5778  15.4598

          k = 0.2000 0.2000 0.2000 (  5749 PWs)   bands (ev):

   -46.0128 -22.7597 -22.6321 -22.6321 -22.5787  -7.2621  -6.3643  -6.3643
    -4.6711  -4.6711  -4.3584   5.9055   6.6093   6.6093   7.1288   7.1288
     7.5480   8.7946   8.7946   8.9492  12.6906  12.7704  12.7704  15.7578

          k = 0.2250 0.2250 0.2250 (  5755 PWs)   bands (ev):

   -46.0124 -22.7559 -22.6373 -22.6373 -22.5827  -7.1952  -6.3481  -6.3481
    -4.6748  -4.6748  -4.3236   5.7629   6.5040   6.5040   6.9260   6.9260
     7.2384   8.7903   8.7903   9.0379  12.8933  12.9603  12.9603  16.0590

          k = 0.2500 0.2500 0.2500 (  5740 PWs)   bands (ev):

   -46.0120 -22.7498 -22.6427 -22.6427 -22.5892  -7.1126  -6.3255  -6.3255
    -4.6879  -4.6879  -4.3105   5.6485   6.3896   6.3896   6.7391   6.7391
     6.9390   8.8220   8.8220   9.1305  13.0908  13.1460  13.1460  16.3564

          k = 0.2750 0.2750 0.2750 (  5755 PWs)   bands (ev):

   -46.0116 -22.7417 -22.6480 -22.6480 -22.5977  -7.0146  -6.2964  -6.2964
    -4.7110  -4.7110  -4.3217   5.5657   6.2704   6.2704   6.5708   6.5708
     6.6555   8.8864   8.8864   9.2248  13.2796  13.3255  13.3255  16.6426

          k = 0.3000 0.3000 0.3000 (  5779 PWs)   bands (ev):

   -46.0112 -22.7320 -22.6532 -22.6532 -22.6079  -6.9025  -6.2611  -6.2611
    -4.7435  -4.7435  -4.3584   5.5132   6.1497   6.1497   6.3947   6.4238
     6.4238   8.9783   8.9783   9.3185  13.4568  13.4967  13.4967  16.9077

          k = 0.3250 0.3250 0.3250 (  5776 PWs)   bands (ev):

   -46.0109 -22.7213 -22.6581 -22.6581 -22.6190  -6.7780  -6.2204  -6.2204
    -4.7845  -4.7845  -4.4196   5.4827   6.0299   6.0299   6.1669   6.3006
     6.3006   9.0914   9.0914   9.4092  13.6207  13.6568  13.6568  17.1319

          k = 0.3500 0.3500 0.3500 (  5770 PWs)   bands (ev):

   -46.0106 -22.7103 -22.6626 -22.6626 -22.6303  -6.6433  -6.1755  -6.1755
    -4.8320  -4.8320  -4.5031   5.4550   5.9147   5.9147   5.9903   6.2011
     6.2011   9.2184   9.2184   9.4945  13.7698  13.8030  13.8030  17.2584

          k = 0.3750 0.3750 0.3750 (  5761 PWs)   bands (ev):

   -46.0103 -22.6997 -22.6667 -22.6667 -22.6413  -6.5018  -6.1282  -6.1282
    -4.8836  -4.8836  -4.6045   5.4006   5.8087   5.8087   5.8903   6.1228
     6.1228   9.3510   9.3510   9.5718  13.9030  13.9326  13.9326  17.2185

          k = 0.4000 0.4000 0.4000 (  5761 PWs)   bands (ev):

   -46.0100 -22.6900 -22.6701 -22.6701 -22.6512  -6.3580  -6.0809  -6.0809
    -4.9358  -4.9358  -4.7182   5.3113   5.7166   5.7166   5.8692   6.0630
     6.0630   9.4800   9.4800   9.6387  14.0186  14.0428  14.0428  17.0809

          k = 0.4250 0.4250 0.4250 (  5766 PWs)   bands (ev):

   -46.0098 -22.6823 -22.6728 -22.6728 -22.6591  -6.2185  -6.0370  -6.0370
    -4.9847  -4.9847  -4.8362   5.2138   5.6418   5.6418   5.8925   6.0190
     6.0190   9.5954   9.5954   9.6933  14.1145  14.1314  14.1314  16.9269

          k = 0.4500 0.4500 0.4500 (  5784 PWs)   bands (ev):

   -46.0097 -22.6774 -22.6749 -22.6749 -22.6640  -6.0940  -6.0004  -6.0004
    -5.0253  -5.0253  -4.9463   5.1330   5.5868   5.5868   5.9276   5.9889
     5.9889   9.6871   9.6871   9.7337  14.1874  14.1964  14.1964  16.7955

          k = 0.4750 0.4750 0.4750 (  5814 PWs)   bands (ev):

   -46.0096 -22.6763 -22.6761 -22.6761 -22.6652  -6.0022  -5.9759  -5.9759
    -5.0525  -5.0525  -5.0298   5.0811   5.5532   5.5532   5.9552   5.9713
     5.9713   9.7463   9.7463   9.7585  14.2335  14.2360  14.2360  16.7085

          k = 0.5000 0.5000 0.5000 (  5832 PWs)   bands (ev):

   -46.0096 -22.6765 -22.6765 -22.6765 -22.6650  -5.9673  -5.9673  -5.9673
    -5.0621  -5.0621  -5.0621   5.0633   5.5419   5.5419   5.9655   5.9655
     5.9655   9.7668   9.7668   9.7668  14.2493  14.2493  14.2493  16.6781

     Writing all to output data dir ./STO/STO.save/
 
     init_run     :      0.26s CPU      0.31s WALL (       1 calls)
     electrons    :     21.30s CPU     21.80s WALL (       1 calls)

     Called by init_run:
     wfcinit      :      0.00s CPU      0.00s WALL (       1 calls)
     wfcinit:atom :      0.02s CPU      0.02s WALL (      81 calls)
     wfcinit:wfcr :      0.54s CPU      0.63s WALL (      81 calls)
     potinit      :      0.03s CPU      0.03s WALL (       1 calls)
     hinit0       :      0.12s CPU      0.13s WALL (       1 calls)

     Called by electrons:
     c_bands      :     21.30s CPU     21.80s WALL (       1 calls)
     v_of_rho     :      0.00s CPU      0.00s WALL (       1 calls)
     v_h          :      0.00s CPU      0.00s WALL (       1 calls)
     v_xc         :      0.00s CPU      0.00s WALL (       1 calls)
     newd         :      0.08s CPU      0.12s WALL (       1 calls)
     PAW_pot      :      0.03s CPU      0.03s WALL (       1 calls)

     Called by c_bands:
     init_us_2    :      0.02s CPU      0.02s WALL (      81 calls)
     init_us_2:cp :      0.02s CPU      0.02s WALL (      81 calls)
     cegterg      :     20.51s CPU     20.89s WALL (     271 calls)

     Called by sum_band:

     Called by *egterg:
     cdiaghg      :      1.61s CPU      1.63s WALL (    4838 calls)
     cegterg:over :      1.43s CPU      1.46s WALL (    4757 calls)
     cegterg:upda :      0.68s CPU      0.69s WALL (    4757 calls)
     cegterg:last :      1.66s CPU      1.68s WALL (    2642 calls)
     h_psi        :     14.23s CPU     14.58s WALL (    5109 calls)
     s_psi        :      0.80s CPU      0.81s WALL (    5109 calls)
     g_psi        :      0.14s CPU      0.14s WALL (    4757 calls)

     Called by h_psi:
     h_psi:calbec :      1.02s CPU      1.05s WALL (    5109 calls)
     vloc_psi     :     12.28s CPU     12.58s WALL (    5109 calls)
     add_vuspsi   :      0.83s CPU      0.86s WALL (    5109 calls)

     General routines
     calbec       :      1.02s CPU      1.04s WALL (    5109 calls)
     fft          :      0.00s CPU      0.01s WALL (       6 calls)
     ffts         :      0.00s CPU      0.00s WALL (       1 calls)
     fftw         :      9.83s CPU     10.08s WALL (  135102 calls)
     interpolate  :      0.00s CPU      0.00s WALL (       1 calls)
     davcio       :      0.03s CPU      0.04s WALL (     162 calls)
 
     Parallel routines

     PAW routines
     PAW_pot      :      0.03s CPU      0.03s WALL (       1 calls)
 
     PWSCF        :     21.72s CPU     22.38s WALL

 
   This run was terminated on:  18:42:37  30Dec2023            

=------------------------------------------------------------------------------=
   JOB DONE.
=------------------------------------------------------------------------------=
