
     Program BANDS v.7.2 starts on 31Dec2023 at  1:52: 1 

     This program is part of the open-source Quantum ESPRESSO suite
     for quantum simulation of materials; please cite
         "P. Giannozzi et al., J. Phys.:Condens. Matter 21 395502 (2009);
         "P. Giannozzi et al., J. Phys.:Condens. Matter 29 465901 (2017);
         "P. Giannozzi et al., J. Chem. Phys. 152 154105 (2020);
          URL http://www.quantum-espresso.org", 
     in publications or presentations arising from this work. More details at
     http://www.quantum-espresso.org/quote

     Parallel version (MPI), running on     4 processors

     MPI processes distributed on     1 nodes
     R & G space division:  proc/nbgrp/npool/nimage =       4
     4229 MiB available memory on the printing compute node when the environment starts
 

     Reading xml data from directory:

     ./La2CuO4/La2CuO4.save/
     file La.pz-spfn-kjpaw_psl.1.0.0.UPF: wavefunction(s)  5S 5D 4F renormalized
     file Cu.pz-dn-rrkjus_psl.1.0.0.UPF: wavefunction(s)  3D renormalized

     IMPORTANT: XC functional enforced from input :
     Exchange-correlation= PZ
                           (   1   1   0   0   0   0   0)
     Any further DFT definition will be discarded
     Please, verify this is what you really want

 
     Parallelization info
     --------------------
     sticks:   dense  smooth     PW     G-vecs:    dense   smooth      PW
     Min         741     370    105               105865    37454    5675
     Max         742     371    106               105880    37469    5690
     Sum        2965    1481    421               423481   149831   22717
 
     Using Slab Decomposition
 
     Reading collected, re-writing distributed wavefunctions
     high-symmetry point:  0.0000 0.0000 0.0000   x coordinate   0.0000
     high-symmetry point:  0.5000 0.0000 0.0000   x coordinate   0.5000
     high-symmetry point:  0.5000 0.5000 0.0000   x coordinate   1.0000
     high-symmetry point:  0.0000 0.0000 0.0000   x coordinate   1.7071

     Plottable bands (eV) written to file La2CuO4.band.gnu
     Bands written to file La2CuO4.band

 **************************************************************************

                    xk=(   0.00000,   0.00000,   0.00000  )

     point group D_4h(4/mmm)
     there are 10 classes
     the character table:

       E     2C4   C2    2C2'  2C2'' i     2S4   s_h   2s_v  2s_d 
A_1g   1.00  1.00  1.00  1.00  1.00  1.00  1.00  1.00  1.00  1.00
A_2g   1.00  1.00  1.00 -1.00 -1.00  1.00  1.00  1.00 -1.00 -1.00
B_1g   1.00 -1.00  1.00  1.00 -1.00  1.00 -1.00  1.00  1.00 -1.00
B_2g   1.00 -1.00  1.00 -1.00  1.00  1.00 -1.00  1.00 -1.00  1.00
E_g    2.00  0.00 -2.00  0.00  0.00  2.00  0.00 -2.00  0.00  0.00
A_1u   1.00  1.00  1.00  1.00  1.00 -1.00 -1.00 -1.00 -1.00 -1.00
A_2u   1.00  1.00  1.00 -1.00 -1.00 -1.00 -1.00 -1.00  1.00  1.00
B_1u   1.00 -1.00  1.00  1.00 -1.00 -1.00  1.00 -1.00 -1.00  1.00
B_2u   1.00 -1.00  1.00 -1.00  1.00 -1.00  1.00 -1.00  1.00 -1.00
E_u    2.00  0.00 -2.00  0.00  0.00 -2.00  0.00  2.00  0.00  0.00

     the symmetry operations in each class and the name of the first element:

     E        1
                                                                 
     2C4      7    8
                                                                 
     C2       2
                                                                 
     2C2'     3    4
                                                                 
     2C2''    5    6
                                                                 
     i        9
                                                                 
     2S4     15   16
                                                                 
     s_h     10
                                                                 
     2s_v    11   12
                                                                 
     2s_d    13   14
                                                                 

     Band symmetry, D_4h(4/mmm) point group:

     e(  1 -  1) =    -19.98413  eV     1   --> A_1g X_1  M_1  
     e(  2 -  2) =    -19.92425  eV     1   --> A_2u X_4' M_4' 
     e(  3 -  3) =    -19.88655  eV     1   --> A_1g X_1  M_1  
     e(  4 -  4) =    -19.82443  eV     1   --> A_2u X_4' M_4' 
     e(  5 -  5) =     -7.47367  eV     1   --> A_1g X_1  M_1  
     e(  6 -  6) =     -7.38446  eV     1   --> A_1g X_1  M_1  
     e(  7 -  7) =     -6.07976  eV     1   --> A_2u X_4' M_4' 
     e(  8 -  8) =     -5.79471  eV     1   --> A_1g X_1  M_1  
     e(  9 -  9) =     -5.50201  eV     1   --> B_1g X_2  M_2  
     e( 10 - 10) =     -5.50167  eV     1   --> B_1g X_2  M_2  
     e( 11 - 11) =     -5.34947  eV     1   --> A_2u X_4' M_4' 
     e( 12 - 12) =     -5.07587  eV     1   --> A_1g X_1  M_1  
     e( 13 - 14) =     -3.49128  eV     2   --> E_u  X_5' M_5' 
     e( 15 - 16) =     -3.38754  eV     2   --> E_g  X_5  M_5  
     e( 17 - 18) =     -3.30829  eV     2   --> E_u  X_5' M_5' 
     e( 19 - 20) =     -3.19657  eV     2   --> E_g  X_5  M_5  
     e( 21 - 21) =     -2.83406  eV     1   --> A_2u X_4' M_4' 
     e( 22 - 22) =     -2.48653  eV     1   --> A_1g X_1  M_1  
     e( 23 - 23) =     -2.47532  eV     1   --> A_2u X_4' M_4' 
     e( 24 - 24) =     -1.92778  eV     1   --> A_1g X_1  M_1  
     e( 25 - 26) =      6.57232  eV     2   --> E_u  X_5' M_5' 
     e( 27 - 28) =      6.61844  eV     2   --> E_u  X_5' M_5' 
     e( 29 - 29) =      7.08470  eV     1   --> A_2u X_4' M_4' 
     e( 30 - 30) =      7.62585  eV     1   --> A_2u X_4' M_4' 
     e( 31 - 31) =      7.75252  eV     1   --> A_1g X_1  M_1  
     e( 32 - 32) =      8.08043  eV     1   --> B_2u X_3' M_3' 
     e( 33 - 33) =      8.12954  eV     1   --> B_2u X_3' M_3' 
     e( 34 - 34) =      8.31780  eV     1   --> A_1g X_1  M_1  
     e( 35 - 36) =      8.65875  eV     2   --> E_u  X_5' M_5' 
     e( 37 - 38) =      8.86510  eV     2   --> E_g  X_5  M_5  
     e( 39 - 39) =      8.96637  eV     1   --> A_2u X_4' M_4' 
     e( 40 - 40) =      9.05623  eV     1   --> B_2g X_3  M_3  
     e( 41 - 41) =      9.05704  eV     1   --> B_2g X_3  M_3  
     e( 42 - 43) =      9.08309  eV     2   --> E_g  X_5  M_5  
     e( 44 - 45) =      9.25308  eV     2   --> E_u  X_5' M_5' 
     e( 46 - 47) =      9.39562  eV     2   --> E_g  X_5  M_5  
     e( 48 - 49) =      9.87771  eV     2   --> E_u  X_5' M_5' 
     e( 50 - 51) =      9.88498  eV     2   --> E_g  X_5  M_5  
     e( 52 - 53) =      9.90039  eV     2   --> E_u  X_5' M_5' 
     e( 54 - 54) =     10.04131  eV     1   --> B_1g X_2  M_2  
     e( 55 - 55) =     10.04305  eV     1   --> B_1g X_2  M_2  
     e( 56 - 56) =     10.30791  eV     1   --> A_1g X_1  M_1  
     e( 57 - 57) =     10.33816  eV     1   --> A_2u X_4' M_4' 
     e( 58 - 58) =     10.72052  eV     1   --> A_1g X_1  M_1  
     e( 59 - 59) =     12.59557  eV     1   --> B_1g X_2  M_2  
     e( 60 - 60) =     13.28528  eV     1   --> B_2u X_3' M_3' 
     e( 61 - 61) =     13.95830  eV     1   --> B_1g X_2  M_2  
     e( 62 - 62) =     14.14167  eV     1   --> A_1g X_1  M_1  
     e( 63 - 63) =     14.40389  eV     1   --> A_1g X_1  M_1  
     e( 64 - 64) =     14.72230  eV     1   --> B_2u X_3' M_3' 
     e( 65 - 65) =     14.73242  eV     1   --> A_2u X_4' M_4' 
     e( 66 - 66) =     14.87784  eV     1   --> A_1g X_1  M_1  
     e( 67 - 67) =     14.91480  eV     1   --> B_2g X_3  M_3  
     e( 68 - 69) =     14.93469  eV     2   --> E_g  X_5  M_5  
     e( 70 - 70) =     14.93543  eV     1   --> B_1u X_2' M_2' 
     e( 71 - 72) =     14.95574  eV     2   --> E_u  X_5' M_5' 
     e( 73 - 73) =     14.99558  eV     1   --> B_1g X_2  M_2  
     e( 74 - 74) =     15.07063  eV     1   --> B_1g X_2  M_2  
     e( 75 - 75) =     15.08431  eV     1   --> B_2g X_3  M_3  
     e( 76 - 76) =     15.11546  eV     1   --> B_1u X_2' M_2' 
     e( 77 - 78) =     15.13415  eV     2   --> E_g  X_5  M_5  
     e( 79 - 80) =     15.16504  eV     2   --> E_u  X_5' M_5' 
     e( 81 - 82) =     15.22562  eV     2   --> E_g  X_5  M_5  
     e( 83 - 84) =     15.28279  eV     2   --> E_u  X_5' M_5' 
     e( 85 - 86) =     15.34717  eV     2   --> E_g  X_5  M_5  
     e( 87 - 88) =     15.43062  eV     2   --> E_u  X_5' M_5' 
     e( 89 - 89) =     15.44439  eV     1   --> A_2u X_4' M_4' 
     e( 90 - 90) =     15.52312  eV     1   --> A_1g X_1  M_1  

 **************************************************************************

 **************************************************************************

                    xk=(   0.02500,   0.00000,   0.00000  )

     point group C_2v (mm2) 
     there are  4 classes
     the character table:

       E     C2    s_v   s_v' 
A_1    1.00  1.00  1.00  1.00
A_2    1.00  1.00 -1.00 -1.00
B_1    1.00 -1.00  1.00 -1.00
B_2    1.00 -1.00 -1.00  1.00

     the symmetry operations in each class and the name of the first element:

     E        1
                                                                 
     C2       2
                                                                 
     s_v      4
                                                                 
     s_v'     3
                                                                 

     Band symmetry, C_2v (mm2)  point group:

     e(  1 -  1) =    -19.98353  eV     1   --> A_1  D_1  S_1  
     e(  2 -  2) =    -19.92370  eV     1   --> B_1  D_3  S_3  
     e(  3 -  3) =    -19.88625  eV     1   --> A_1  D_1  S_1  
     e(  4 -  4) =    -19.82418  eV     1   --> B_1  D_3  S_3  
     e(  5 -  5) =     -7.47057  eV     1   --> A_1  D_1  S_1  
     e(  6 -  6) =     -7.38294  eV     1   --> A_1  D_1  S_1  
     e(  7 -  7) =     -6.08046  eV     1   --> B_1  D_3  S_3  
     e(  8 -  8) =     -5.79899  eV     1   --> A_1  D_1  S_1  
     e(  9 -  9) =     -5.50590  eV     1   --> A_1  D_1  S_1  
     e( 10 - 10) =     -5.50540  eV     1   --> A_1  D_1  S_1  
     e( 11 - 11) =     -5.35485  eV     1   --> B_1  D_3  S_3  
     e( 12 - 12) =     -5.07984  eV     1   --> A_1  D_1  S_1  
     e( 13 - 13) =     -3.49032  eV     1   --> B_2  D_4  S_4  
     e( 14 - 14) =     -3.48859  eV     1   --> A_1  D_1  S_1  
     e( 15 - 15) =     -3.38773  eV     1   --> B_1  D_3  S_3  
     e( 16 - 16) =     -3.38659  eV     1   --> A_2  D_2  S_2  
     e( 17 - 17) =     -3.30785  eV     1   --> B_2  D_4  S_4  
     e( 18 - 18) =     -3.30223  eV     1   --> A_1  D_1  S_1  
     e( 19 - 19) =     -3.20487  eV     1   --> B_1  D_3  S_3  
     e( 20 - 20) =     -3.19617  eV     1   --> A_2  D_2  S_2  
     e( 21 - 21) =     -2.83106  eV     1   --> B_1  D_3  S_3  
     e( 22 - 22) =     -2.48424  eV     1   --> A_1  D_1  S_1  
     e( 23 - 23) =     -2.46827  eV     1   --> B_1  D_3  S_3  
     e( 24 - 24) =     -1.93006  eV     1   --> A_1  D_1  S_1  
     e( 25 - 25) =      6.56567  eV     1   --> A_1  D_1  S_1  
     e( 26 - 26) =      6.57413  eV     1   --> B_2  D_4  S_4  
     e( 27 - 27) =      6.60771  eV     1   --> A_1  D_1  S_1  
     e( 28 - 28) =      6.61971  eV     1   --> B_2  D_4  S_4  
     e( 29 - 29) =      7.08111  eV     1   --> B_1  D_3  S_3  
     e( 30 - 30) =      7.62290  eV     1   --> B_1  D_3  S_3  
     e( 31 - 31) =      7.75602  eV     1   --> A_1  D_1  S_1  
     e( 32 - 32) =      8.07683  eV     1   --> B_1  D_3  S_3  
     e( 33 - 33) =      8.12340  eV     1   --> B_1  D_3  S_3  
     e( 34 - 34) =      8.31603  eV     1   --> A_1  D_1  S_1  
     e( 35 - 35) =      8.64254  eV     1   --> B_2  D_4  S_4  
     e( 36 - 36) =      8.64919  eV     1   --> A_1  D_1  S_1  
     e( 37 - 37) =      8.86122  eV     1   --> A_2  D_2  S_2  
     e( 38 - 38) =      8.86832  eV     1   --> B_1  D_3  S_3  
     e( 39 - 39) =      8.94440  eV     1   --> B_1  D_3  S_3  
     e( 40 - 40) =      9.01332  eV     1   --> B_2  D_4  S_4  
     e( 41 - 41) =      9.06159  eV     1   --> B_2  D_4  S_4  
     e( 42 - 42) =      9.07948  eV     1   --> A_2  D_2  S_2  
     e( 43 - 43) =      9.11787  eV     1   --> B_1  D_3  S_3  
     e( 44 - 44) =      9.23851  eV     1   --> A_1  D_1  S_1  
     e( 45 - 45) =      9.28947  eV     1   --> B_2  D_4  S_4  
     e( 46 - 46) =      9.39619  eV     1   --> A_2  D_2  S_2  
     e( 47 - 47) =      9.39944  eV     1   --> B_1  D_3  S_3  
     e( 48 - 48) =      9.81697  eV     1   --> A_1  D_1  S_1  
     e( 49 - 49) =      9.84686  eV     1   --> A_1  D_1  S_1  
     e( 50 - 50) =      9.88000  eV     1   --> B_1  D_3  S_3  
     e( 51 - 51) =      9.88171  eV     1   --> A_2  D_2  S_2  
     e( 52 - 52) =      9.88396  eV     1   --> B_2  D_4  S_4  
     e( 53 - 53) =      9.89924  eV     1   --> B_2  D_4  S_4  
     e( 54 - 54) =     10.09853  eV     1   --> A_1  D_1  S_1  
     e( 55 - 55) =     10.09940  eV     1   --> A_1  D_1  S_1  
     e( 56 - 56) =     10.31500  eV     1   --> A_1  D_1  S_1  
     e( 57 - 57) =     10.33843  eV     1   --> B_1  D_3  S_3  
     e( 58 - 58) =     10.73143  eV     1   --> A_1  D_1  S_1  
     e( 59 - 59) =     12.60881  eV     1   --> A_1  D_1  S_1  
     e( 60 - 60) =     13.29288  eV     1   --> B_1  D_3  S_3  
     e( 61 - 61) =     13.96789  eV     1   --> A_1  D_1  S_1  
     e( 62 - 62) =     14.14547  eV     1   --> A_1  D_1  S_1  
     e( 63 - 63) =     14.40654  eV     1   --> A_1  D_1  S_1  
     e( 64 - 64) =     14.72266  eV     1   --> B_1  D_3  S_3  
     e( 65 - 65) =     14.73681  eV     1   --> B_1  D_3  S_3  
     e( 66 - 66) =     14.89227  eV     1   --> A_1  D_1  S_1  
     e( 67 - 67) =     14.91553  eV     1   --> B_2  D_4  S_4  
     e( 68 - 68) =     14.93503  eV     1   --> A_2  D_2  S_2  
     e( 69 - 70) =     14.93546  eV     2   --> A_2  D_2  S_2  
     e( 69 - 70) =     14.93546  eV     2   --> B_1  D_3  S_3  
     e( 71 - 71) =     14.95546  eV     1   --> A_1  D_1  S_1  
     e( 72 - 72) =     14.95627  eV     1   --> B_2  D_4  S_4  
     e( 73 - 73) =     14.99717  eV     1   --> A_1  D_1  S_1  
     e( 74 - 74) =     15.07110  eV     1   --> A_1  D_1  S_1  
     e( 75 - 75) =     15.08530  eV     1   --> B_2  D_4  S_4  
     e( 76 - 76) =     15.11582  eV     1   --> A_2  D_2  S_2  
     e( 77 - 77) =     15.13454  eV     1   --> B_1  D_3  S_3  
     e( 78 - 78) =     15.13485  eV     1   --> A_2  D_2  S_2  
     e( 79 - 79) =     15.16477  eV     1   --> B_2  D_4  S_4  
     e( 80 - 80) =     15.16784  eV     1   --> A_1  D_1  S_1  
     e( 81 - 81) =     15.22342  eV     1   --> B_1  D_3  S_3  
     e( 82 - 82) =     15.22553  eV     1   --> A_2  D_2  S_2  
     e( 83 - 83) =     15.28189  eV     1   --> B_2  D_4  S_4  
     e( 84 - 84) =     15.28348  eV     1   --> A_1  D_1  S_1  
     e( 85 - 85) =     15.34538  eV     1   --> B_1  D_3  S_3  
     e( 86 - 86) =     15.34600  eV     1   --> A_2  D_2  S_2  
     e( 87 - 87) =     15.42953  eV     1   --> B_2  D_4  S_4  
     e( 88 - 88) =     15.43090  eV     1   --> A_1  D_1  S_1  
     e( 89 - 89) =     15.44482  eV     1   --> B_1  D_3  S_3  
     e( 90 - 90) =     15.52941  eV     1   --> A_1  D_1  S_1  

 **************************************************************************

 **************************************************************************

                    xk=(   0.05000,   0.00000,   0.00000  )

     Band symmetry, C_2v (mm2)  point group:

     e(  1 -  1) =    -19.98177  eV     1   --> A_1  D_1  S_1  
     e(  2 -  2) =    -19.92208  eV     1   --> B_1  D_3  S_3  
     e(  3 -  3) =    -19.88535  eV     1   --> A_1  D_1  S_1  
     e(  4 -  4) =    -19.82344  eV     1   --> B_1  D_3  S_3  
     e(  5 -  5) =     -7.46129  eV     1   --> A_1  D_1  S_1  
     e(  6 -  6) =     -7.37841  eV     1   --> A_1  D_1  S_1  
     e(  7 -  7) =     -6.08254  eV     1   --> B_1  D_3  S_3  
     e(  8 -  8) =     -5.81253  eV     1   --> A_1  D_1  S_1  
     e(  9 -  9) =     -5.51773  eV     1   --> A_1  D_1  S_1  
     e( 10 - 10) =     -5.51530  eV     1   --> A_1  D_1  S_1  
     e( 11 - 11) =     -5.37078  eV     1   --> B_1  D_3  S_3  
     e( 12 - 12) =     -5.09129  eV     1   --> A_1  D_1  S_1  
     e( 13 - 13) =     -3.48746  eV     1   --> B_2  D_4  S_4  
     e( 14 - 14) =     -3.48082  eV     1   --> A_1  D_1  S_1  
     e( 15 - 15) =     -3.38837  eV     1   --> B_1  D_3  S_3  
     e( 16 - 16) =     -3.38376  eV     1   --> A_2  D_2  S_2  
     e( 17 - 17) =     -3.30656  eV     1   --> B_2  D_4  S_4  
     e( 18 - 18) =     -3.28459  eV     1   --> A_1  D_1  S_1  
     e( 19 - 19) =     -3.22845  eV     1   --> B_1  D_3  S_3  
     e( 20 - 20) =     -3.19499  eV     1   --> A_2  D_2  S_2  
     e( 21 - 21) =     -2.82214  eV     1   --> B_1  D_3  S_3  
     e( 22 - 22) =     -2.47739  eV     1   --> A_1  D_1  S_1  
     e( 23 - 23) =     -2.44839  eV     1   --> B_1  D_3  S_3  
     e( 24 - 24) =     -1.93678  eV     1   --> A_1  D_1  S_1  
     e( 25 - 25) =      6.54568  eV     1   --> A_1  D_1  S_1  
     e( 26 - 26) =      6.57623  eV     1   --> A_1  D_1  S_1  
     e( 27 - 27) =      6.57957  eV     1   --> B_2  D_4  S_4  
     e( 28 - 28) =      6.62350  eV     1   --> B_2  D_4  S_4  
     e( 29 - 29) =      7.07037  eV     1   --> B_1  D_3  S_3  
     e( 30 - 30) =      7.61351  eV     1   --> B_1  D_3  S_3  
     e( 31 - 31) =      7.76567  eV     1   --> A_1  D_1  S_1  
     e( 32 - 32) =      8.06667  eV     1   --> B_1  D_3  S_3  
     e( 33 - 33) =      8.10625  eV     1   --> B_1  D_3  S_3  
     e( 34 - 34) =      8.31067  eV     1   --> A_1  D_1  S_1  
     e( 35 - 35) =      8.59785  eV     1   --> B_2  D_4  S_4  
     e( 36 - 36) =      8.62174  eV     1   --> A_1  D_1  S_1  
     e( 37 - 37) =      8.84967  eV     1   --> A_2  D_2  S_2  
     e( 38 - 38) =      8.87692  eV     1   --> B_1  D_3  S_3  
     e( 39 - 39) =      8.91105  eV     1   --> B_1  D_3  S_3  
     e( 40 - 40) =      8.92575  eV     1   --> B_2  D_4  S_4  
     e( 41 - 41) =      9.06859  eV     1   --> A_2  D_2  S_2  
     e( 42 - 42) =      9.07249  eV     1   --> B_2  D_4  S_4  
     e( 43 - 43) =      9.18834  eV     1   --> B_1  D_3  S_3  
     e( 44 - 44) =      9.19882  eV     1   --> A_1  D_1  S_1  
     e( 45 - 45) =      9.35531  eV     1   --> B_2  D_4  S_4  
     e( 46 - 46) =      9.39792  eV     1   --> A_2  D_2  S_2  
     e( 47 - 47) =      9.41117  eV     1   --> B_1  D_3  S_3  
     e( 48 - 48) =      9.71462  eV     1   --> A_1  D_1  S_1  
     e( 49 - 49) =      9.75739  eV     1   --> A_1  D_1  S_1  
     e( 50 - 50) =      9.86567  eV     1   --> B_1  D_3  S_3  
     e( 51 - 51) =      9.87216  eV     1   --> A_2  D_2  S_2  
     e( 52 - 52) =      9.89731  eV     1   --> B_2  D_4  S_4  
     e( 53 - 53) =      9.90249  eV     1   --> B_2  D_4  S_4  
     e( 54 - 54) =     10.18265  eV     1   --> A_1  D_1  S_1  
     e( 55 - 55) =     10.19072  eV     1   --> A_1  D_1  S_1  
     e( 56 - 56) =     10.33929  eV     1   --> B_1  D_3  S_3  
     e( 57 - 57) =     10.34531  eV     1   --> A_1  D_1  S_1  
     e( 58 - 58) =     10.76536  eV     1   --> A_1  D_1  S_1  
     e( 59 - 59) =     12.64818  eV     1   --> A_1  D_1  S_1  
     e( 60 - 60) =     13.31549  eV     1   --> B_1  D_3  S_3  
     e( 61 - 61) =     13.99622  eV     1   --> A_1  D_1  S_1  
     e( 62 - 62) =     14.15653  eV     1   --> A_1  D_1  S_1  
     e( 63 - 63) =     14.41374  eV     1   --> A_1  D_1  S_1  
     e( 64 - 64) =     14.72355  eV     1   --> B_1  D_3  S_3  
     e( 65 - 65) =     14.75012  eV     1   --> B_1  D_3  S_3  
     e( 66 - 66) =     14.91759  eV     1   --> B_2  D_4  S_4  
     e( 67 - 67) =     14.93392  eV     1   --> A_1  D_1  S_1  
     e( 68 - 68) =     14.93554  eV     1   --> A_2  D_2  S_2  
     e( 69 - 69) =     14.93583  eV     1   --> A_2  D_2  S_2  
     e( 70 - 70) =     14.93777  eV     1   --> B_1  D_3  S_3  
     e( 71 - 71) =     14.95443  eV     1   --> A_1  D_1  S_1  
     e( 72 - 72) =     14.95742  eV     1   --> B_2  D_4  S_4  
     e( 73 - 73) =     15.00125  eV     1   --> A_1  D_1  S_1  
     e( 74 - 74) =     15.07256  eV     1   --> A_1  D_1  S_1  
     e( 75 - 75) =     15.08759  eV     1   --> B_2  D_4  S_4  
     e( 76 - 76) =     15.11681  eV     1   --> A_2  D_2  S_2  
     e( 77 - 77) =     15.13515  eV     1   --> B_1  D_3  S_3  
     e( 78 - 78) =     15.13657  eV     1   --> A_2  D_2  S_2  
     e( 79 - 79) =     15.16391  eV     1   --> B_2  D_4  S_4  
     e( 80 - 80) =     15.17743  eV     1   --> A_1  D_1  S_1  
     e( 81 - 81) =     15.21694  eV     1   --> B_1  D_3  S_3  
     e( 82 - 82) =     15.22514  eV     1   --> A_2  D_2  S_2  
     e( 83 - 83) =     15.27916  eV     1   --> B_2  D_4  S_4  
     e( 84 - 84) =     15.28550  eV     1   --> A_1  D_1  S_1  
     e( 85 - 85) =     15.34024  eV     1   --> B_1  D_3  S_3  
     e( 86 - 86) =     15.34224  eV     1   --> A_2  D_2  S_2  
     e( 87 - 87) =     15.42635  eV     1   --> B_2  D_4  S_4  
     e( 88 - 88) =     15.43218  eV     1   --> A_1  D_1  S_1  
     e( 89 - 89) =     15.44598  eV     1   --> B_1  D_3  S_3  
     e( 90 - 90) =     15.54803  eV     1   --> A_1  D_1  S_1  

 **************************************************************************

 **************************************************************************

                    xk=(   0.07500,   0.00000,   0.00000  )

     Band symmetry, C_2v (mm2)  point group:

     e(  1 -  1) =    -19.97887  eV     1   --> A_1  D_1  S_1  
     e(  2 -  2) =    -19.91940  eV     1   --> B_1  D_3  S_3  
     e(  3 -  3) =    -19.88387  eV     1   --> A_1  D_1  S_1  
     e(  4 -  4) =    -19.82223  eV     1   --> B_1  D_3  S_3  
     e(  5 -  5) =     -7.44589  eV     1   --> A_1  D_1  S_1  
     e(  6 -  6) =     -7.37098  eV     1   --> A_1  D_1  S_1  
     e(  7 -  7) =     -6.08604  eV     1   --> B_1  D_3  S_3  
     e(  8 -  8) =     -5.83707  eV     1   --> A_1  D_1  S_1  
     e(  9 -  9) =     -5.53762  eV     1   --> A_1  D_1  S_1  
     e( 10 - 10) =     -5.52827  eV     1   --> A_1  D_1  S_1  
     e( 11 - 11) =     -5.39665  eV     1   --> B_1  D_3  S_3  
     e( 12 - 12) =     -5.10905  eV     1   --> A_1  D_1  S_1  
     e( 13 - 13) =     -3.48274  eV     1   --> B_2  D_4  S_4  
     e( 14 - 14) =     -3.46877  eV     1   --> A_1  D_1  S_1  
     e( 15 - 15) =     -3.38964  eV     1   --> B_1  D_3  S_3  
     e( 16 - 16) =     -3.37910  eV     1   --> A_2  D_2  S_2  
     e( 17 - 17) =     -3.30445  eV     1   --> B_2  D_4  S_4  
     e( 18 - 18) =     -3.26400  eV     1   --> B_1  D_3  S_3  
     e( 19 - 19) =     -3.25684  eV     1   --> A_1  D_1  S_1  
     e( 20 - 20) =     -3.19306  eV     1   --> A_2  D_2  S_2  
     e( 21 - 21) =     -2.80749  eV     1   --> B_1  D_3  S_3  
     e( 22 - 22) =     -2.46604  eV     1   --> A_1  D_1  S_1  
     e( 23 - 23) =     -2.41876  eV     1   --> B_1  D_3  S_3  
     e( 24 - 24) =     -1.94764  eV     1   --> A_1  D_1  S_1  
     e( 25 - 25) =      6.51227  eV     1   --> A_1  D_1  S_1  
     e( 26 - 26) =      6.52589  eV     1   --> A_1  D_1  S_1  
     e( 27 - 27) =      6.58861  eV     1   --> B_2  D_4  S_4  
     e( 28 - 28) =      6.62980  eV     1   --> B_2  D_4  S_4  
     e( 29 - 29) =      7.05259  eV     1   --> B_1  D_3  S_3  
     e( 30 - 30) =      7.59618  eV     1   --> B_1  D_3  S_3  
     e( 31 - 31) =      7.77919  eV     1   --> A_1  D_1  S_1  
     e( 32 - 32) =      8.05161  eV     1   --> B_1  D_3  S_3  
     e( 33 - 33) =      8.08160  eV     1   --> B_1  D_3  S_3  
     e( 34 - 34) =      8.30160  eV     1   --> A_1  D_1  S_1  
     e( 35 - 35) =      8.53268  eV     1   --> B_2  D_4  S_4  
     e( 36 - 36) =      8.57991  eV     1   --> A_1  D_1  S_1  
     e( 37 - 37) =      8.82501  eV     1   --> B_2  D_4  S_4  
     e( 38 - 38) =      8.83079  eV     1   --> A_2  D_2  S_2  
     e( 39 - 39) =      8.88694  eV     1   --> B_1  D_3  S_3  
     e( 40 - 40) =      8.88834  eV     1   --> B_1  D_3  S_3  
     e( 41 - 41) =      9.05034  eV     1   --> A_2  D_2  S_2  
     e( 42 - 42) =      9.08263  eV     1   --> B_2  D_4  S_4  
     e( 43 - 43) =      9.14365  eV     1   --> A_1  D_1  S_1  
     e( 44 - 44) =      9.26999  eV     1   --> B_1  D_3  S_3  
     e( 45 - 45) =      9.40078  eV     1   --> A_2  D_2  S_2  
     e( 46 - 46) =      9.41542  eV     1   --> B_2  D_4  S_4  
     e( 47 - 47) =      9.43140  eV     1   --> B_1  D_3  S_3  
     e( 48 - 48) =      9.61039  eV     1   --> A_1  D_1  S_1  
     e( 49 - 49) =      9.66155  eV     1   --> A_1  D_1  S_1  
     e( 50 - 50) =      9.84407  eV     1   --> B_1  D_3  S_3  
     e( 51 - 51) =      9.85714  eV     1   --> A_2  D_2  S_2  
     e( 52 - 52) =      9.89934  eV     1   --> B_2  D_4  S_4  
     e( 53 - 53) =      9.93247  eV     1   --> B_2  D_4  S_4  
     e( 54 - 54) =     10.23600  eV     1   --> A_1  D_1  S_1  
     e( 55 - 55) =     10.27175  eV     1   --> A_1  D_1  S_1  
     e( 56 - 56) =     10.34094  eV     1   --> B_1  D_3  S_3  
     e( 57 - 57) =     10.42088  eV     1   --> A_1  D_1  S_1  
     e( 58 - 58) =     10.82427  eV     1   --> A_1  D_1  S_1  
     e( 59 - 59) =     12.71278  eV     1   --> A_1  D_1  S_1  
     e( 60 - 60) =     13.35250  eV     1   --> B_1  D_3  S_3  
     e( 61 - 61) =     14.04196  eV     1   --> A_1  D_1  S_1  
     e( 62 - 62) =     14.17422  eV     1   --> A_1  D_1  S_1  
     e( 63 - 63) =     14.42390  eV     1   --> A_1  D_1  S_1  
     e( 64 - 64) =     14.72480  eV     1   --> B_1  D_3  S_3  
     e( 65 - 65) =     14.77188  eV     1   --> B_1  D_3  S_3  
     e( 66 - 66) =     14.92086  eV     1   --> B_2  D_4  S_4  
     e( 67 - 67) =     14.93581  eV     1   --> A_2  D_2  S_2  
     e( 68 - 68) =     14.93735  eV     1   --> A_2  D_2  S_2  
     e( 69 - 69) =     14.94145  eV     1   --> B_1  D_3  S_3  
     e( 70 - 70) =     14.95358  eV     1   --> A_1  D_1  S_1  
     e( 71 - 71) =     14.95943  eV     1   --> B_2  D_4  S_4  
     e( 72 - 72) =     14.99543  eV     1   --> A_1  D_1  S_1  
     e( 73 - 73) =     15.00697  eV     1   --> A_1  D_1  S_1  
     e( 74 - 74) =     15.07554  eV     1   --> A_1  D_1  S_1  
     e( 75 - 75) =     15.09113  eV     1   --> B_2  D_4  S_4  
     e( 76 - 76) =     15.11843  eV     1   --> A_2  D_2  S_2  
     e( 77 - 77) =     15.13593  eV     1   --> B_1  D_3  S_3  
     e( 78 - 78) =     15.13918  eV     1   --> A_2  D_2  S_2  
     e( 79 - 79) =     15.16263  eV     1   --> B_2  D_4  S_4  
     e( 80 - 80) =     15.19890  eV     1   --> A_1  D_1  S_1  
     e( 81 - 81) =     15.20663  eV     1   --> B_1  D_3  S_3  
     e( 82 - 82) =     15.22444  eV     1   --> A_2  D_2  S_2  
     e( 83 - 83) =     15.27481  eV     1   --> B_2  D_4  S_4  
     e( 84 - 84) =     15.28926  eV     1   --> A_1  D_1  S_1  
     e( 85 - 85) =     15.33271  eV     1   --> B_1  D_3  S_3  
     e( 86 - 86) =     15.33631  eV     1   --> A_2  D_2  S_2  
     e( 87 - 87) =     15.42136  eV     1   --> B_2  D_4  S_4  
     e( 88 - 88) =     15.43630  eV     1   --> A_1  D_1  S_1  
     e( 89 - 89) =     15.44762  eV     1   --> B_1  D_3  S_3  
     e( 90 - 90) =     15.57924  eV     1   --> A_1  D_1  S_1  

 **************************************************************************

 **************************************************************************

                    xk=(   0.10000,   0.00000,   0.00000  )

     Band symmetry, C_2v (mm2)  point group:

     e(  1 -  1) =    -19.97489  eV     1   --> A_1  D_1  S_1  
     e(  2 -  2) =    -19.91572  eV     1   --> B_1  D_3  S_3  
     e(  3 -  3) =    -19.88188  eV     1   --> A_1  D_1  S_1  
     e(  4 -  4) =    -19.82060  eV     1   --> B_1  D_3  S_3  
     e(  5 -  5) =     -7.42446  eV     1   --> A_1  D_1  S_1  
     e(  6 -  6) =     -7.36081  eV     1   --> A_1  D_1  S_1  
     e(  7 -  7) =     -6.09098  eV     1   --> B_1  D_3  S_3  
     e(  8 -  8) =     -5.87442  eV     1   --> A_1  D_1  S_1  
     e(  9 -  9) =     -5.56554  eV     1   --> A_1  D_1  S_1  
     e( 10 - 10) =     -5.54060  eV     1   --> A_1  D_1  S_1  
     e( 11 - 11) =     -5.43150  eV     1   --> B_1  D_3  S_3  
     e( 12 - 12) =     -5.13149  eV     1   --> A_1  D_1  S_1  
     e( 13 - 13) =     -3.47624  eV     1   --> B_2  D_4  S_4  
     e( 14 - 14) =     -3.45358  eV     1   --> A_1  D_1  S_1  
     e( 15 - 15) =     -3.39182  eV     1   --> B_1  D_3  S_3  
     e( 16 - 16) =     -3.37268  eV     1   --> A_2  D_2  S_2  
     e( 17 - 17) =     -3.30757  eV     1   --> B_1  D_3  S_3  
     e( 18 - 18) =     -3.30161  eV     1   --> B_2  D_4  S_4  
     e( 19 - 19) =     -3.22117  eV     1   --> A_1  D_1  S_1  
     e( 20 - 20) =     -3.19047  eV     1   --> A_2  D_2  S_2  
     e( 21 - 21) =     -2.78748  eV     1   --> B_1  D_3  S_3  
     e( 22 - 22) =     -2.45033  eV     1   --> A_1  D_1  S_1  
     e( 23 - 23) =     -2.38305  eV     1   --> B_1  D_3  S_3  
     e( 24 - 24) =     -1.96212  eV     1   --> A_1  D_1  S_1  
     e( 25 - 25) =      6.45930  eV     1   --> A_1  D_1  S_1  
     e( 26 - 26) =      6.46544  eV     1   --> A_1  D_1  S_1  
     e( 27 - 27) =      6.60123  eV     1   --> B_2  D_4  S_4  
     e( 28 - 28) =      6.63860  eV     1   --> B_2  D_4  S_4  
     e( 29 - 29) =      7.02813  eV     1   --> B_1  D_3  S_3  
     e( 30 - 30) =      7.56894  eV     1   --> B_1  D_3  S_3  
     e( 31 - 31) =      7.79354  eV     1   --> A_1  D_1  S_1  
     e( 32 - 32) =      8.03360  eV     1   --> B_1  D_3  S_3  
     e( 33 - 33) =      8.05423  eV     1   --> B_1  D_3  S_3  
     e( 34 - 34) =      8.28868  eV     1   --> A_1  D_1  S_1  
     e( 35 - 35) =      8.45405  eV     1   --> B_2  D_4  S_4  
     e( 36 - 36) =      8.52865  eV     1   --> A_1  D_1  S_1  
     e( 37 - 37) =      8.71913  eV     1   --> B_2  D_4  S_4  
     e( 38 - 38) =      8.80512  eV     1   --> A_2  D_2  S_2  
     e( 39 - 39) =      8.87521  eV     1   --> B_1  D_3  S_3  
     e( 40 - 40) =      8.89954  eV     1   --> B_1  D_3  S_3  
     e( 41 - 41) =      9.02465  eV     1   --> A_2  D_2  S_2  
     e( 42 - 42) =      9.08377  eV     1   --> A_1  D_1  S_1  
     e( 43 - 43) =      9.08697  eV     1   --> B_2  D_4  S_4  
     e( 44 - 44) =      9.35252  eV     1   --> B_1  D_3  S_3  
     e( 45 - 45) =      9.40476  eV     1   --> A_2  D_2  S_2  
     e( 46 - 46) =      9.45567  eV     1   --> B_2  D_4  S_4  
     e( 47 - 47) =      9.46042  eV     1   --> B_1  D_3  S_3  
     e( 48 - 48) =      9.51090  eV     1   --> A_1  D_1  S_1  
     e( 49 - 49) =      9.56041  eV     1   --> A_1  D_1  S_1  
     e( 50 - 50) =      9.81983  eV     1   --> B_1  D_3  S_3  
     e( 51 - 51) =      9.83783  eV     1   --> A_2  D_2  S_2  
     e( 52 - 52) =      9.91253  eV     1   --> B_2  D_4  S_4  
     e( 53 - 53) =      9.97246  eV     1   --> B_2  D_4  S_4  
     e( 54 - 54) =     10.26000  eV     1   --> A_1  D_1  S_1  
     e( 55 - 55) =     10.33351  eV     1   --> A_1  D_1  S_1  
     e( 56 - 56) =     10.34370  eV     1   --> B_1  D_3  S_3  
     e( 57 - 57) =     10.53203  eV     1   --> A_1  D_1  S_1  
     e( 58 - 58) =     10.90696  eV     1   --> A_1  D_1  S_1  
     e( 59 - 59) =     12.80107  eV     1   --> A_1  D_1  S_1  
     e( 60 - 60) =     13.40304  eV     1   --> B_1  D_3  S_3  
     e( 61 - 61) =     14.10292  eV     1   --> A_1  D_1  S_1  
     e( 62 - 62) =     14.19752  eV     1   --> A_1  D_1  S_1  
     e( 63 - 63) =     14.43570  eV     1   --> A_1  D_1  S_1  
     e( 64 - 64) =     14.72622  eV     1   --> B_1  D_3  S_3  
     e( 65 - 65) =     14.80107  eV     1   --> B_1  D_3  S_3  
     e( 66 - 66) =     14.92542  eV     1   --> B_2  D_4  S_4  
     e( 67 - 67) =     14.93629  eV     1   --> A_2  D_2  S_2  
     e( 68 - 68) =     14.93935  eV     1   --> A_2  D_2  S_2  
     e( 69 - 69) =     14.94666  eV     1   --> B_1  D_3  S_3  
     e( 70 - 70) =     14.95334  eV     1   --> A_1  D_1  S_1  
     e( 71 - 71) =     14.96221  eV     1   --> B_2  D_4  S_4  
     e( 72 - 72) =     15.01357  eV     1   --> A_1  D_1  S_1  
     e( 73 - 73) =     15.05416  eV     1   --> A_1  D_1  S_1  
     e( 74 - 74) =     15.08468  eV     1   --> A_1  D_1  S_1  
     e( 75 - 75) =     15.09577  eV     1   --> B_2  D_4  S_4  
     e( 76 - 76) =     15.12061  eV     1   --> A_2  D_2  S_2  
     e( 77 - 77) =     15.13655  eV     1   --> B_1  D_3  S_3  
     e( 78 - 78) =     15.14236  eV     1   --> A_2  D_2  S_2  
     e( 79 - 79) =     15.16094  eV     1   --> B_2  D_4  S_4  
     e( 80 - 80) =     15.19339  eV     1   --> B_1  D_3  S_3  
     e( 81 - 81) =     15.22340  eV     1   --> A_2  D_2  S_2  
     e( 82 - 82) =     15.24405  eV     1   --> A_1  D_1  S_1  
     e( 83 - 83) =     15.26904  eV     1   --> B_2  D_4  S_4  
     e( 84 - 84) =     15.29494  eV     1   --> A_1  D_1  S_1  
     e( 85 - 85) =     15.32406  eV     1   --> B_1  D_3  S_3  
     e( 86 - 86) =     15.32828  eV     1   --> A_2  D_2  S_2  
     e( 87 - 87) =     15.41483  eV     1   --> B_2  D_4  S_4  
     e( 88 - 88) =     15.44874  eV     1   --> A_1  D_1  S_1  
     e( 89 - 89) =     15.44946  eV     1   --> B_1  D_3  S_3  
     e( 90 - 90) =     15.62321  eV     1   --> A_1  D_1  S_1  

 **************************************************************************

 **************************************************************************

                    xk=(   0.12500,   0.00000,   0.00000  )

     Band symmetry, C_2v (mm2)  point group:

     e(  1 -  1) =    -19.96990  eV     1   --> A_1  D_1  S_1  
     e(  2 -  2) =    -19.91110  eV     1   --> B_1  D_3  S_3  
     e(  3 -  3) =    -19.87943  eV     1   --> A_1  D_1  S_1  
     e(  4 -  4) =    -19.81861  eV     1   --> B_1  D_3  S_3  
     e(  5 -  5) =     -7.39716  eV     1   --> A_1  D_1  S_1  
     e(  6 -  6) =     -7.34815  eV     1   --> A_1  D_1  S_1  
     e(  7 -  7) =     -6.09736  eV     1   --> B_1  D_3  S_3  
     e(  8 -  8) =     -5.92509  eV     1   --> A_1  D_1  S_1  
     e(  9 -  9) =     -5.60118  eV     1   --> A_1  D_1  S_1  
     e( 10 - 10) =     -5.54955  eV     1   --> A_1  D_1  S_1  
     e( 11 - 11) =     -5.47414  eV     1   --> B_1  D_3  S_3  
     e( 12 - 12) =     -5.15698  eV     1   --> A_1  D_1  S_1  
     e( 13 - 13) =     -3.46808  eV     1   --> B_2  D_4  S_4  
     e( 14 - 14) =     -3.43642  eV     1   --> A_1  D_1  S_1  
     e( 15 - 15) =     -3.39519  eV     1   --> B_1  D_3  S_3  
     e( 16 - 16) =     -3.36461  eV     1   --> A_2  D_2  S_2  
     e( 17 - 17) =     -3.35548  eV     1   --> B_1  D_3  S_3  
     e( 18 - 18) =     -3.29814  eV     1   --> B_2  D_4  S_4  
     e( 19 - 19) =     -3.18732  eV     1   --> A_2  D_2  S_2  
     e( 20 - 20) =     -3.18020  eV     1   --> A_1  D_1  S_1  
     e( 21 - 21) =     -2.76258  eV     1   --> B_1  D_3  S_3  
     e( 22 - 22) =     -2.43052  eV     1   --> A_1  D_1  S_1  
     e( 23 - 23) =     -2.34451  eV     1   --> B_1  D_3  S_3  
     e( 24 - 24) =     -1.97949  eV     1   --> A_1  D_1  S_1  
     e( 25 - 25) =      6.37935  eV     1   --> A_1  D_1  S_1  
     e( 26 - 26) =      6.40547  eV     1   --> A_1  D_1  S_1  
     e( 27 - 27) =      6.61738  eV     1   --> B_2  D_4  S_4  
     e( 28 - 28) =      6.64989  eV     1   --> B_2  D_4  S_4  
     e( 29 - 29) =      6.99761  eV     1   --> B_1  D_3  S_3  
     e( 30 - 30) =      7.53031  eV     1   --> B_1  D_3  S_3  
     e( 31 - 31) =      7.80576  eV     1   --> A_1  D_1  S_1  
     e( 32 - 32) =      8.01428  eV     1   --> B_1  D_3  S_3  
     e( 33 - 33) =      8.02869  eV     1   --> B_1  D_3  S_3  
     e( 34 - 34) =      8.27180  eV     1   --> A_1  D_1  S_1  
     e( 35 - 35) =      8.36684  eV     1   --> B_2  D_4  S_4  
     e( 36 - 36) =      8.47328  eV     1   --> A_1  D_1  S_1  
     e( 37 - 37) =      8.61097  eV     1   --> B_2  D_4  S_4  
     e( 38 - 38) =      8.77338  eV     1   --> A_2  D_2  S_2  
     e( 39 - 39) =      8.87521  eV     1   --> B_1  D_3  S_3  
     e( 40 - 40) =      8.90822  eV     1   --> B_1  D_3  S_3  
     e( 41 - 41) =      8.99157  eV     1   --> A_2  D_2  S_2  
     e( 42 - 42) =      9.02793  eV     1   --> A_1  D_1  S_1  
     e( 43 - 43) =      9.08341  eV     1   --> B_2  D_4  S_4  
     e( 44 - 44) =      9.40982  eV     1   --> A_2  D_2  S_2  
     e( 45 - 45) =      9.41779  eV     1   --> A_1  D_1  S_1  
     e( 46 - 46) =      9.42404  eV     1   --> B_1  D_3  S_3  
     e( 47 - 47) =      9.45349  eV     1   --> A_1  D_1  S_1  
     e( 48 - 48) =      9.46862  eV     1   --> B_2  D_4  S_4  
     e( 49 - 49) =      9.49750  eV     1   --> B_1  D_3  S_3  
     e( 50 - 50) =      9.80276  eV     1   --> B_1  D_3  S_3  
     e( 51 - 51) =      9.81564  eV     1   --> A_2  D_2  S_2  
     e( 52 - 52) =      9.94287  eV     1   --> B_2  D_4  S_4  
     e( 53 - 53) =     10.02045  eV     1   --> B_2  D_4  S_4  
     e( 54 - 54) =     10.27423  eV     1   --> A_1  D_1  S_1  
     e( 55 - 55) =     10.34813  eV     1   --> B_1  D_3  S_3  
     e( 56 - 56) =     10.37691  eV     1   --> A_1  D_1  S_1  
     e( 57 - 57) =     10.65471  eV     1   --> A_1  D_1  S_1  
     e( 58 - 58) =     11.00710  eV     1   --> A_1  D_1  S_1  
     e( 59 - 59) =     12.91099  eV     1   --> A_1  D_1  S_1  
     e( 60 - 60) =     13.46592  eV     1   --> B_1  D_3  S_3  
     e( 61 - 61) =     14.17607  eV     1   --> A_1  D_1  S_1  
     e( 62 - 62) =     14.22522  eV     1   --> A_1  D_1  S_1  
     e( 63 - 63) =     14.44815  eV     1   --> A_1  D_1  S_1  
     e( 64 - 64) =     14.72781  eV     1   --> B_1  D_3  S_3  
     e( 65 - 65) =     14.83657  eV     1   --> B_1  D_3  S_3  
     e( 66 - 66) =     14.93108  eV     1   --> B_2  D_4  S_4  
     e( 67 - 67) =     14.93727  eV     1   --> A_2  D_2  S_2  
     e( 68 - 68) =     14.94212  eV     1   --> A_2  D_2  S_2  
     e( 69 - 69) =     14.95347  eV     1   --> B_1  D_3  S_3  
     e( 70 - 70) =     14.95402  eV     1   --> A_1  D_1  S_1  
     e( 71 - 71) =     14.96585  eV     1   --> B_2  D_4  S_4  
     e( 72 - 72) =     15.02053  eV     1   --> A_1  D_1  S_1  
     e( 73 - 73) =     15.07394  eV     1   --> A_1  D_1  S_1  
     e( 74 - 74) =     15.10140  eV     1   --> B_2  D_4  S_4  
     e( 75 - 75) =     15.11466  eV     1   --> A_1  D_1  S_1  
     e( 76 - 76) =     15.12313  eV     1   --> A_2  D_2  S_2  
     e( 77 - 77) =     15.13668  eV     1   --> B_1  D_3  S_3  
     e( 78 - 78) =     15.14594  eV     1   --> A_2  D_2  S_2  
     e( 79 - 79) =     15.15891  eV     1   --> B_2  D_4  S_4  
     e( 80 - 80) =     15.17810  eV     1   --> B_1  D_3  S_3  
     e( 81 - 81) =     15.22189  eV     1   --> A_2  D_2  S_2  
     e( 82 - 82) =     15.26225  eV     1   --> B_2  D_4  S_4  
     e( 83 - 83) =     15.30313  eV     1   --> A_1  D_1  S_1  
     e( 84 - 84) =     15.31341  eV     1   --> A_1  D_1  S_1  
     e( 85 - 85) =     15.31549  eV     1   --> B_1  D_3  S_3  
     e( 86 - 86) =     15.31865  eV     1   --> A_2  D_2  S_2  
     e( 87 - 87) =     15.40711  eV     1   --> B_2  D_4  S_4  
     e( 88 - 88) =     15.45095  eV     1   --> B_1  D_3  S_3  
     e( 89 - 89) =     15.48833  eV     1   --> A_1  D_1  S_1  
     e( 90 - 90) =     15.68011  eV     1   --> A_1  D_1  S_1  

 **************************************************************************

 **************************************************************************

                    xk=(   0.15000,   0.00000,   0.00000  )

     Band symmetry, C_2v (mm2)  point group:

     e(  1 -  1) =    -19.96399  eV     1   --> A_1  D_1  S_1  
     e(  2 -  2) =    -19.90563  eV     1   --> B_1  D_3  S_3  
     e(  3 -  3) =    -19.87662  eV     1   --> A_1  D_1  S_1  
     e(  4 -  4) =    -19.81633  eV     1   --> B_1  D_3  S_3  
     e(  5 -  5) =     -7.36416  eV     1   --> A_1  D_1  S_1  
     e(  6 -  6) =     -7.33328  eV     1   --> A_1  D_1  S_1  
     e(  7 -  7) =     -6.10517  eV     1   --> B_1  D_3  S_3  
     e(  8 -  8) =     -5.98774  eV     1   --> A_1  D_1  S_1  
     e(  9 -  9) =     -5.64382  eV     1   --> A_1  D_1  S_1  
     e( 10 - 10) =     -5.55414  eV     1   --> A_1  D_1  S_1  
     e( 11 - 11) =     -5.52317  eV     1   --> B_1  D_3  S_3  
     e( 12 - 12) =     -5.18423  eV     1   --> A_1  D_1  S_1  
     e( 13 - 13) =     -3.45840  eV     1   --> B_2  D_4  S_4  
     e( 14 - 14) =     -3.41830  eV     1   --> A_1  D_1  S_1  
     e( 15 - 15) =     -3.40470  eV     1   --> B_1  D_3  S_3  
     e( 16 - 16) =     -3.40003  eV     1   --> B_1  D_3  S_3  
     e( 17 - 17) =     -3.35504  eV     1   --> A_2  D_2  S_2  
     e( 18 - 18) =     -3.29415  eV     1   --> B_2  D_4  S_4  
     e( 19 - 19) =     -3.18371  eV     1   --> A_2  D_2  S_2  
     e( 20 - 20) =     -3.13672  eV     1   --> A_1  D_1  S_1  
     e( 21 - 21) =     -2.73336  eV     1   --> B_1  D_3  S_3  
     e( 22 - 22) =     -2.40699  eV     1   --> A_1  D_1  S_1  
     e( 23 - 23) =     -2.30573  eV     1   --> B_1  D_3  S_3  
     e( 24 - 24) =     -1.99882  eV     1   --> A_1  D_1  S_1  
     e( 25 - 25) =      6.28892  eV     1   --> A_1  D_1  S_1  
     e( 26 - 26) =      6.33314  eV     1   --> A_1  D_1  S_1  
     e( 27 - 27) =      6.63701  eV     1   --> B_2  D_4  S_4  
     e( 28 - 28) =      6.66364  eV     1   --> B_2  D_4  S_4  
     e( 29 - 29) =      6.96206  eV     1   --> B_1  D_3  S_3  
     e( 30 - 30) =      7.48021  eV     1   --> B_1  D_3  S_3  
     e( 31 - 31) =      7.81357  eV     1   --> A_1  D_1  S_1  
     e( 32 - 32) =      7.99473  eV     1   --> B_1  D_3  S_3  
     e( 33 - 33) =      8.00779  eV     1   --> B_1  D_3  S_3  
     e( 34 - 34) =      8.25103  eV     1   --> A_1  D_1  S_1  
     e( 35 - 35) =      8.27433  eV     1   --> B_2  D_4  S_4  
     e( 36 - 36) =      8.41850  eV     1   --> A_1  D_1  S_1  
     e( 37 - 37) =      8.50207  eV     1   --> B_2  D_4  S_4  
     e( 38 - 38) =      8.73648  eV     1   --> A_2  D_2  S_2  
     e( 39 - 39) =      8.88538  eV     1   --> B_1  D_3  S_3  
     e( 40 - 40) =      8.91326  eV     1   --> B_1  D_3  S_3  
     e( 41 - 41) =      8.95136  eV     1   --> A_2  D_2  S_2  
     e( 42 - 42) =      8.98174  eV     1   --> A_1  D_1  S_1  
     e( 43 - 43) =      9.07185  eV     1   --> B_2  D_4  S_4  
     e( 44 - 44) =      9.33156  eV     1   --> A_1  D_1  S_1  
     e( 45 - 45) =      9.34158  eV     1   --> A_1  D_1  S_1  
     e( 46 - 46) =      9.41590  eV     1   --> A_2  D_2  S_2  
     e( 47 - 47) =      9.45465  eV     1   --> B_2  D_4  S_4  
     e( 48 - 48) =      9.46601  eV     1   --> B_1  D_3  S_3  
     e( 49 - 49) =      9.54058  eV     1   --> B_1  D_3  S_3  
     e( 50 - 50) =      9.79199  eV     1   --> A_2  D_2  S_2  
     e( 51 - 51) =      9.81063  eV     1   --> B_1  D_3  S_3  
     e( 52 - 52) =      9.99016  eV     1   --> B_2  D_4  S_4  
     e( 53 - 53) =     10.07414  eV     1   --> B_2  D_4  S_4  
     e( 54 - 54) =     10.28610  eV     1   --> A_1  D_1  S_1  
     e( 55 - 55) =     10.35502  eV     1   --> B_1  D_3  S_3  
     e( 56 - 56) =     10.40668  eV     1   --> A_1  D_1  S_1  
     e( 57 - 57) =     10.77842  eV     1   --> A_1  D_1  S_1  
     e( 58 - 58) =     11.11612  eV     1   --> A_1  D_1  S_1  
     e( 59 - 59) =     13.03994  eV     1   --> A_1  D_1  S_1  
     e( 60 - 60) =     13.53982  eV     1   --> B_1  D_3  S_3  
     e( 61 - 61) =     14.25601  eV     1   --> A_1  D_1  S_1  
     e( 62 - 62) =     14.25755  eV     1   --> A_1  D_1  S_1  
     e( 63 - 63) =     14.46096  eV     1   --> A_1  D_1  S_1  
     e( 64 - 64) =     14.72926  eV     1   --> B_1  D_3  S_3  
     e( 65 - 65) =     14.87685  eV     1   --> B_1  D_3  S_3  
     e( 66 - 66) =     14.93757  eV     1   --> B_2  D_4  S_4  
     e( 67 - 67) =     14.93861  eV     1   --> A_2  D_2  S_2  
     e( 68 - 68) =     14.94542  eV     1   --> A_2  D_2  S_2  
     e( 69 - 69) =     14.95572  eV     1   --> A_1  D_1  S_1  
     e( 70 - 70) =     14.96155  eV     1   --> B_1  D_3  S_3  
     e( 71 - 71) =     14.97027  eV     1   --> B_2  D_4  S_4  
     e( 72 - 72) =     15.02744  eV     1   --> A_1  D_1  S_1  
     e( 73 - 73) =     15.08006  eV     1   --> A_1  D_1  S_1  
     e( 74 - 74) =     15.10759  eV     1   --> B_2  D_4  S_4  
     e( 75 - 75) =     15.12579  eV     1   --> A_2  D_2  S_2  
     e( 76 - 76) =     15.13592  eV     1   --> B_1  D_3  S_3  
     e( 77 - 77) =     15.14174  eV     1   --> A_1  D_1  S_1  
     e( 78 - 78) =     15.14953  eV     1   --> A_2  D_2  S_2  
     e( 79 - 79) =     15.15665  eV     1   --> B_2  D_4  S_4  
     e( 80 - 80) =     15.16157  eV     1   --> B_1  D_3  S_3  
     e( 81 - 81) =     15.21974  eV     1   --> A_2  D_2  S_2  
     e( 82 - 82) =     15.25477  eV     1   --> B_2  D_4  S_4  
     e( 83 - 83) =     15.30770  eV     1   --> A_2  D_2  S_2  
     e( 84 - 84) =     15.30808  eV     1   --> B_1  D_3  S_3  
     e( 85 - 85) =     15.31447  eV     1   --> A_1  D_1  S_1  
     e( 86 - 86) =     15.36522  eV     1   --> A_1  D_1  S_1  
     e( 87 - 87) =     15.39843  eV     1   --> B_2  D_4  S_4  
     e( 88 - 88) =     15.45161  eV     1   --> B_1  D_3  S_3  
     e( 89 - 89) =     15.59221  eV     1   --> A_1  D_1  S_1  
     e( 90 - 90) =     15.74982  eV     1   -->   ?

 **************************************************************************

 **************************************************************************

                    xk=(   0.17500,   0.00000,   0.00000  )

     Band symmetry, C_2v (mm2)  point group:

     e(  1 -  1) =    -19.95728  eV     1   --> A_1  D_1  S_1  
     e(  2 -  2) =    -19.89942  eV     1   --> B_1  D_3  S_3  
     e(  3 -  3) =    -19.87353  eV     1   --> A_1  D_1  S_1  
     e(  4 -  4) =    -19.81384  eV     1   --> B_1  D_3  S_3  
     e(  5 -  5) =     -7.32570  eV     1   --> A_1  D_1  S_1  
     e(  6 -  6) =     -7.31651  eV     1   --> A_1  D_1  S_1  
     e(  7 -  7) =     -6.11434  eV     1   --> B_1  D_3  S_3  
     e(  8 -  8) =     -6.05981  eV     1   --> A_1  D_1  S_1  
     e(  9 -  9) =     -5.69234  eV     1   --> A_1  D_1  S_1  
     e( 10 - 10) =     -5.57713  eV     1   --> B_1  D_3  S_3  
     e( 11 - 11) =     -5.55475  eV     1   --> A_1  D_1  S_1  
     e( 12 - 12) =     -5.21238  eV     1   --> A_1  D_1  S_1  
     e( 13 - 13) =     -3.45284  eV     1   --> B_1  D_3  S_3  
     e( 14 - 14) =     -3.44738  eV     1   --> B_2  D_4  S_4  
     e( 15 - 15) =     -3.40657  eV     1   --> B_1  D_3  S_3  
     e( 16 - 16) =     -3.39993  eV     1   --> A_1  D_1  S_1  
     e( 17 - 17) =     -3.34413  eV     1   --> A_2  D_2  S_2  
     e( 18 - 18) =     -3.28982  eV     1   --> B_2  D_4  S_4  
     e( 19 - 19) =     -3.17981  eV     1   --> A_2  D_2  S_2  
     e( 20 - 20) =     -3.09352  eV     1   --> A_1  D_1  S_1  
     e( 21 - 21) =     -2.70044  eV     1   --> B_1  D_3  S_3  
     e( 22 - 22) =     -2.38033  eV     1   --> A_1  D_1  S_1  
     e( 23 - 23) =     -2.26862  eV     1   --> B_1  D_3  S_3  
     e( 24 - 24) =     -2.01898  eV     1   --> A_1  D_1  S_1  
     e( 25 - 25) =      6.19081  eV     1   --> A_1  D_1  S_1  
     e( 26 - 26) =      6.24982  eV     1   --> A_1  D_1  S_1  
     e( 27 - 27) =      6.66006  eV     1   --> B_2  D_4  S_4  
     e( 28 - 28) =      6.67982  eV     1   --> B_2  D_4  S_4  
     e( 29 - 29) =      6.92281  eV     1   --> B_1  D_3  S_3  
     e( 30 - 30) =      7.42026  eV     1   --> B_1  D_3  S_3  
     e( 31 - 31) =      7.81592  eV     1   --> A_1  D_1  S_1  
     e( 32 - 32) =      7.97547  eV     1   --> B_1  D_3  S_3  
     e( 33 - 33) =      7.99217  eV     1   --> B_1  D_3  S_3  
     e( 34 - 34) =      8.17885  eV     1   --> B_2  D_4  S_4  
     e( 35 - 35) =      8.22657  eV     1   --> A_1  D_1  S_1  
     e( 36 - 36) =      8.36774  eV     1   --> A_1  D_1  S_1  
     e( 37 - 37) =      8.39346  eV     1   --> B_2  D_4  S_4  
     e( 38 - 38) =      8.69545  eV     1   --> A_2  D_2  S_2  
     e( 39 - 39) =      8.90408  eV     1   --> B_1  D_3  S_3  
     e( 40 - 40) =      8.90462  eV     1   --> A_2  D_2  S_2  
     e( 41 - 41) =      8.91462  eV     1   --> B_1  D_3  S_3  
     e( 42 - 42) =      8.94749  eV     1   --> A_1  D_1  S_1  
     e( 43 - 43) =      9.05330  eV     1   --> B_2  D_4  S_4  
     e( 44 - 44) =      9.22679  eV     1   --> A_1  D_1  S_1  
     e( 45 - 45) =      9.25246  eV     1   --> A_1  D_1  S_1  
     e( 46 - 46) =      9.42000  eV     1   --> B_2  D_4  S_4  
     e( 47 - 47) =      9.42295  eV     1   --> A_2  D_2  S_2  
     e( 48 - 48) =      9.46448  eV     1   --> B_1  D_3  S_3  
     e( 49 - 49) =      9.58639  eV     1   --> B_1  D_3  S_3  
     e( 50 - 50) =      9.76812  eV     1   --> A_2  D_2  S_2  
     e( 51 - 51) =      9.85726  eV     1   --> B_1  D_3  S_3  
     e( 52 - 52) =     10.04895  eV     1   --> B_2  D_4  S_4  
     e( 53 - 53) =     10.13125  eV     1   --> B_2  D_4  S_4  
     e( 54 - 54) =     10.29781  eV     1   --> A_1  D_1  S_1  
     e( 55 - 55) =     10.36542  eV     1   --> B_1  D_3  S_3  
     e( 56 - 56) =     10.42733  eV     1   --> A_1  D_1  S_1  
     e( 57 - 57) =     10.89875  eV     1   --> A_1  D_1  S_1  
     e( 58 - 58) =     11.22656  eV     1   --> A_1  D_1  S_1  
     e( 59 - 59) =     13.18479  eV     1   --> A_1  D_1  S_1  
     e( 60 - 60) =     13.62327  eV     1   --> B_1  D_3  S_3  
     e( 61 - 61) =     14.28863  eV     1   --> A_1  D_1  S_1  
     e( 62 - 62) =     14.34277  eV     1   --> A_1  D_1  S_1  
     e( 63 - 63) =     14.47404  eV     1   --> A_1  D_1  S_1  
     e( 64 - 64) =     14.73037  eV     1   --> B_1  D_3  S_3  
     e( 65 - 65) =     14.92025  eV     1   --> B_1  D_3  S_3  
     e( 66 - 66) =     14.94046  eV     1   --> A_2  D_2  S_2  
     e( 67 - 67) =     14.94487  eV     1   --> B_2  D_4  S_4  
     e( 68 - 68) =     14.94928  eV     1   --> A_2  D_2  S_2  
     e( 69 - 69) =     14.95826  eV     1   --> A_1  D_1  S_1  
     e( 70 - 70) =     14.97100  eV     1   --> B_1  D_3  S_3  
     e( 71 - 71) =     14.97549  eV     1   --> B_2  D_4  S_4  
     e( 72 - 72) =     15.03423  eV     1   --> A_1  D_1  S_1  
     e( 73 - 73) =     15.08549  eV     1   --> A_1  D_1  S_1  
     e( 74 - 74) =     15.11398  eV     1   --> B_2  D_4  S_4  
     e( 75 - 75) =     15.12851  eV     1   --> A_2  D_2  S_2  
     e( 76 - 76) =     15.13448  eV     1   --> B_1  D_3  S_3  
     e( 77 - 77) =     15.14484  eV     1   --> B_1  D_3  S_3  
     e( 78 - 78) =     15.15287  eV     1   --> A_2  D_2  S_2  
     e( 79 - 79) =     15.15432  eV     1   --> B_2  D_4  S_4  
     e( 80 - 80) =     15.16303  eV     1   --> A_1  D_1  S_1  
     e( 81 - 81) =     15.21693  eV     1   --> A_2  D_2  S_2  
     e( 82 - 82) =     15.24704  eV     1   --> B_2  D_4  S_4  
     e( 83 - 83) =     15.29591  eV     1   --> A_2  D_2  S_2  
     e( 84 - 84) =     15.30241  eV     1   --> B_1  D_3  S_3  
     e( 85 - 85) =     15.32973  eV     1   --> A_1  D_1  S_1  
     e( 86 - 86) =     15.38923  eV     1   --> B_2  D_4  S_4  
     e( 87 - 87) =     15.39252  eV     1   --> A_1  D_1  S_1  
     e( 88 - 88) =     15.45108  eV     1   --> B_1  D_3  S_3  
     e( 89 - 89) =     15.75367  eV     1   --> A_1  D_1  S_1  
     e( 90 - 90) =     15.83499  eV     1   -->   ?

 **************************************************************************

 **************************************************************************

                    xk=(   0.20000,   0.00000,   0.00000  )

     Band symmetry, C_2v (mm2)  point group:

     e(  1 -  1) =    -19.94988  eV     1   --> A_1  D_1  S_1  
     e(  2 -  2) =    -19.89256  eV     1   --> B_1  D_3  S_3  
     e(  3 -  3) =    -19.87028  eV     1   --> A_1  D_1  S_1  
     e(  4 -  4) =    -19.81125  eV     1   --> B_1  D_3  S_3  
     e(  5 -  5) =     -7.29819  eV     1   --> A_1  D_1  S_1  
     e(  6 -  6) =     -7.28207  eV     1   --> A_1  D_1  S_1  
     e(  7 -  7) =     -6.13839  eV     1   --> A_1  D_1  S_1  
     e(  8 -  8) =     -6.12473  eV     1   --> B_1  D_3  S_3  
     e(  9 -  9) =     -5.74536  eV     1   --> A_1  D_1  S_1  
     e( 10 - 10) =     -5.63455  eV     1   --> B_1  D_3  S_3  
     e( 11 - 11) =     -5.55233  eV     1   --> A_1  D_1  S_1  
     e( 12 - 12) =     -5.24102  eV     1   --> A_1  D_1  S_1  
     e( 13 - 13) =     -3.49807  eV     1   --> B_1  D_3  S_3  
     e( 14 - 14) =     -3.43519  eV     1   --> B_2  D_4  S_4  
     e( 15 - 15) =     -3.41493  eV     1   --> B_1  D_3  S_3  
     e( 16 - 16) =     -3.38169  eV     1   --> A_1  D_1  S_1  
     e( 17 - 17) =     -3.33206  eV     1   --> A_2  D_2  S_2  
     e( 18 - 18) =     -3.28530  eV     1   --> B_2  D_4  S_4  
     e( 19 - 19) =     -3.17577  eV     1   --> A_2  D_2  S_2  
     e( 20 - 20) =     -3.05321  eV     1   --> A_1  D_1  S_1  
     e( 21 - 21) =     -2.66449  eV     1   --> B_1  D_3  S_3  
     e( 22 - 22) =     -2.35123  eV     1   --> A_1  D_1  S_1  
     e( 23 - 23) =     -2.23453  eV     1   --> B_1  D_3  S_3  
     e( 24 - 24) =     -2.03870  eV     1   --> A_1  D_1  S_1  
     e( 25 - 25) =      6.08776  eV     1   --> A_1  D_1  S_1  
     e( 26 - 26) =      6.15755  eV     1   --> A_1  D_1  S_1  
     e( 27 - 27) =      6.68645  eV     1   --> B_2  D_4  S_4  
     e( 28 - 28) =      6.69842  eV     1   --> B_2  D_4  S_4  
     e( 29 - 29) =      6.88141  eV     1   --> B_1  D_3  S_3  
     e( 30 - 30) =      7.35313  eV     1   --> B_1  D_3  S_3  
     e( 31 - 31) =      7.81304  eV     1   --> A_1  D_1  S_1  
     e( 32 - 32) =      7.95671  eV     1   --> B_1  D_3  S_3  
     e( 33 - 33) =      7.98088  eV     1   --> B_1  D_3  S_3  
     e( 34 - 34) =      8.08212  eV     1   --> B_2  D_4  S_4  
     e( 35 - 35) =      8.19848  eV     1   --> A_1  D_1  S_1  
     e( 36 - 36) =      8.28598  eV     1   --> B_2  D_4  S_4  
     e( 37 - 37) =      8.32330  eV     1   --> A_1  D_1  S_1  
     e( 38 - 38) =      8.65143  eV     1   --> A_2  D_2  S_2  
     e( 39 - 39) =      8.85229  eV     1   --> A_2  D_2  S_2  
     e( 40 - 40) =      8.91283  eV     1   --> B_1  D_3  S_3  
     e( 41 - 41) =      8.92387  eV     1   --> A_1  D_1  S_1  
     e( 42 - 42) =      8.92980  eV     1   --> B_1  D_3  S_3  
     e( 43 - 43) =      9.02923  eV     1   --> B_2  D_4  S_4  
     e( 44 - 44) =      9.11273  eV     1   --> A_1  D_1  S_1  
     e( 45 - 45) =      9.18084  eV     1   --> A_1  D_1  S_1  
     e( 46 - 46) =      9.37165  eV     1   --> B_2  D_4  S_4  
     e( 47 - 47) =      9.42850  eV     1   --> B_1  D_3  S_3  
     e( 48 - 48) =      9.43088  eV     1   --> A_2  D_2  S_2  
     e( 49 - 49) =      9.63094  eV     1   --> B_1  D_3  S_3  
     e( 50 - 50) =      9.74497  eV     1   --> A_2  D_2  S_2  
     e( 51 - 51) =      9.93387  eV     1   --> B_1  D_3  S_3  
     e( 52 - 52) =     10.11326  eV     1   --> B_2  D_4  S_4  
     e( 53 - 53) =     10.18971  eV     1   --> B_2  D_4  S_4  
     e( 54 - 54) =     10.31014  eV     1   --> A_1  D_1  S_1  
     e( 55 - 55) =     10.38062  eV     1   --> B_1  D_3  S_3  
     e( 56 - 56) =     10.44200  eV     1   --> A_1  D_1  S_1  
     e( 57 - 57) =     11.01339  eV     1   --> A_1  D_1  S_1  
     e( 58 - 58) =     11.33310  eV     1   --> A_1  D_1  S_1  
     e( 59 - 59) =     13.34184  eV     1   --> A_1  D_1  S_1  
     e( 60 - 60) =     13.71463  eV     1   --> B_1  D_3  S_3  
     e( 61 - 61) =     14.32206  eV     1   --> A_1  D_1  S_1  
     e( 62 - 62) =     14.42669  eV     1   --> A_1  D_1  S_1  
     e( 63 - 63) =     14.48732  eV     1   --> A_1  D_1  S_1  
     e( 64 - 64) =     14.73087  eV     1   --> B_1  D_3  S_3  
     e( 65 - 65) =     14.94292  eV     1   --> A_2  D_2  S_2  
     e( 66 - 66) =     14.95266  eV     1   --> B_2  D_4  S_4  
     e( 67 - 67) =     14.95368  eV     1   --> A_2  D_2  S_2  
     e( 68 - 68) =     14.96136  eV     1   --> A_1  D_1  S_1  
     e( 69 - 69) =     14.96472  eV     1   --> B_1  D_3  S_3  
     e( 70 - 71) =     14.98147  eV     2   --> B_1  D_3  S_3  
     e( 70 - 71) =     14.98147  eV     2   --> B_2  D_4  S_4  
     e( 72 - 72) =     15.04085  eV     1   --> A_1  D_1  S_1  
     e( 73 - 73) =     15.09086  eV     1   --> A_1  D_1  S_1  
     e( 74 - 74) =     15.12025  eV     1   --> B_2  D_4  S_4  
     e( 75 - 75) =     15.12847  eV     1   --> B_1  D_3  S_3  
     e( 76 - 76) =     15.13092  eV     1   --> A_2  D_2  S_2  
     e( 77 - 77) =     15.13260  eV     1   --> B_1  D_3  S_3  
     e( 78 - 78) =     15.15196  eV     1   --> B_2  D_4  S_4  
     e( 79 - 79) =     15.15570  eV     1   --> A_2  D_2  S_2  
     e( 80 - 80) =     15.18113  eV     1   --> A_1  D_1  S_1  
     e( 81 - 81) =     15.21342  eV     1   --> A_2  D_2  S_2  
     e( 82 - 82) =     15.23962  eV     1   --> B_2  D_4  S_4  
     e( 83 - 83) =     15.28358  eV     1   --> A_2  D_2  S_2  
     e( 84 - 84) =     15.29826  eV     1   --> B_1  D_3  S_3  
     e( 85 - 85) =     15.34985  eV     1   --> A_1  D_1  S_1  
     e( 86 - 86) =     15.37959  eV     1   --> B_2  D_4  S_4  
     e( 87 - 87) =     15.41700  eV     1   --> A_1  D_1  S_1  
     e( 88 - 88) =     15.44903  eV     1   --> B_1  D_3  S_3  
     e( 89 - 89) =     15.91315  eV     1   --> B_1  D_3  S_3  
     e( 90 - 90) =     15.92465  eV     1   --> A_1  D_1  S_1  

 **************************************************************************

 **************************************************************************

                    xk=(   0.22500,   0.00000,   0.00000  )

     Band symmetry, C_2v (mm2)  point group:

     e(  1 -  1) =    -19.94195  eV     1   --> A_1  D_1  S_1  
     e(  2 -  2) =    -19.88520  eV     1   --> B_1  D_3  S_3  
     e(  3 -  3) =    -19.86698  eV     1   --> A_1  D_1  S_1  
     e(  4 -  4) =    -19.80865  eV     1   --> B_1  D_3  S_3  
     e(  5 -  5) =     -7.27866  eV     1   --> A_1  D_1  S_1  
     e(  6 -  6) =     -7.23360  eV     1   --> A_1  D_1  S_1  
     e(  7 -  7) =     -6.22076  eV     1   --> A_1  D_1  S_1  
     e(  8 -  8) =     -6.13612  eV     1   --> B_1  D_3  S_3  
     e(  9 -  9) =     -5.80142  eV     1   --> A_1  D_1  S_1  
     e( 10 - 10) =     -5.69396  eV     1   --> B_1  D_3  S_3  
     e( 11 - 11) =     -5.54787  eV     1   --> A_1  D_1  S_1  
     e( 12 - 12) =     -5.26992  eV     1   --> A_1  D_1  S_1  
     e( 13 - 13) =     -3.53902  eV     1   --> B_1  D_3  S_3  
     e( 14 - 14) =     -3.42520  eV     1   --> B_1  D_3  S_3  
     e( 15 - 15) =     -3.42205  eV     1   --> B_2  D_4  S_4  
     e( 16 - 16) =     -3.36364  eV     1   --> A_1  D_1  S_1  
     e( 17 - 17) =     -3.31905  eV     1   --> A_2  D_2  S_2  
     e( 18 - 18) =     -3.28078  eV     1   --> B_2  D_4  S_4  
     e( 19 - 19) =     -3.17177  eV     1   --> A_2  D_2  S_2  
     e( 20 - 20) =     -3.01817  eV     1   --> A_1  D_1  S_1  
     e( 21 - 21) =     -2.62619  eV     1   --> B_1  D_3  S_3  
     e( 22 - 22) =     -2.32049  eV     1   --> A_1  D_1  S_1  
     e( 23 - 23) =     -2.20444  eV     1   --> B_1  D_3  S_3  
     e( 24 - 24) =     -2.05668  eV     1   --> A_1  D_1  S_1  
     e( 25 - 25) =      5.98242  eV     1   --> A_1  D_1  S_1  
     e( 26 - 26) =      6.05886  eV     1   --> A_1  D_1  S_1  
     e( 27 - 27) =      6.71612  eV     1   --> B_2  D_4  S_4  
     e( 28 - 28) =      6.71944  eV     1   --> B_2  D_4  S_4  
     e( 29 - 29) =      6.83949  eV     1   --> B_1  D_3  S_3  
     e( 30 - 30) =      7.28169  eV     1   --> B_1  D_3  S_3  
     e( 31 - 31) =      7.80621  eV     1   --> A_1  D_1  S_1  
     e( 32 - 32) =      7.93854  eV     1   --> B_1  D_3  S_3  
     e( 33 - 33) =      7.97239  eV     1   --> B_1  D_3  S_3  
     e( 34 - 34) =      7.98546  eV     1   --> B_2  D_4  S_4  
     e( 35 - 35) =      8.16642  eV     1   --> A_1  D_1  S_1  
     e( 36 - 36) =      8.18030  eV     1   --> B_2  D_4  S_4  
     e( 37 - 37) =      8.28677  eV     1   --> A_1  D_1  S_1  
     e( 38 - 38) =      8.60562  eV     1   --> A_2  D_2  S_2  
     e( 39 - 39) =      8.79565  eV     1   --> A_2  D_2  S_2  
     e( 40 - 40) =      8.90175  eV     1   --> A_1  D_1  S_1  
     e( 41 - 41) =      8.90856  eV     1   --> B_1  D_3  S_3  
     e( 42 - 42) =      8.96122  eV     1   --> B_1  D_3  S_3  
     e( 43 - 43) =      9.00123  eV     1   --> B_2  D_4  S_4  
     e( 44 - 44) =      9.00906  eV     1   --> A_1  D_1  S_1  
     e( 45 - 45) =      9.11712  eV     1   --> A_1  D_1  S_1  
     e( 46 - 46) =      9.31505  eV     1   --> B_2  D_4  S_4  
     e( 47 - 47) =      9.37440  eV     1   --> B_1  D_3  S_3  
     e( 48 - 48) =      9.43960  eV     1   --> A_2  D_2  S_2  
     e( 49 - 49) =      9.67014  eV     1   --> B_1  D_3  S_3  
     e( 50 - 50) =      9.72316  eV     1   --> A_2  D_2  S_2  
     e( 51 - 51) =     10.02462  eV     1   --> B_1  D_3  S_3  
     e( 52 - 52) =     10.17882  eV     1   --> B_2  D_4  S_4  
     e( 53 - 53) =     10.24778  eV     1   --> B_2  D_4  S_4  
     e( 54 - 54) =     10.32332  eV     1   --> A_1  D_1  S_1  
     e( 55 - 55) =     10.40187  eV     1   --> B_1  D_3  S_3  
     e( 56 - 56) =     10.45263  eV     1   --> A_1  D_1  S_1  
     e( 57 - 57) =     11.12108  eV     1   --> A_1  D_1  S_1  
     e( 58 - 58) =     11.43225  eV     1   --> A_1  D_1  S_1  
     e( 59 - 59) =     13.50686  eV     1   --> A_1  D_1  S_1  
     e( 60 - 60) =     13.81201  eV     1   --> B_1  D_3  S_3  
     e( 61 - 61) =     14.35552  eV     1   --> A_1  D_1  S_1  
     e( 62 - 62) =     14.49887  eV     1   --> A_1  D_1  S_1  
     e( 63 - 63) =     14.50642  eV     1   --> A_1  D_1  S_1  
     e( 64 - 64) =     14.73067  eV     1   --> B_1  D_3  S_3  
     e( 65 - 65) =     14.94603  eV     1   --> A_2  D_2  S_2  
     e( 66 - 66) =     14.95866  eV     1   --> A_2  D_2  S_2  
     e( 67 - 67) =     14.96100  eV     1   --> B_2  D_4  S_4  
     e( 68 - 68) =     14.96495  eV     1   --> A_1  D_1  S_1  
     e( 69 - 69) =     14.98812  eV     1   --> B_2  D_4  S_4  
     e( 70 - 70) =     14.99294  eV     1   --> B_1  D_3  S_3  
     e( 71 - 71) =     15.00777  eV     1   --> B_1  D_3  S_3  
     e( 72 - 72) =     15.04732  eV     1   --> A_1  D_1  S_1  
     e( 73 - 73) =     15.09631  eV     1   --> A_1  D_1  S_1  
     e( 74 - 74) =     15.11331  eV     1   --> B_1  D_3  S_3  
     e( 75 - 75) =     15.12577  eV     1   --> B_2  D_4  S_4  
     e( 76 - 76) =     15.13082  eV     1   --> B_1  D_3  S_3  
     e( 77 - 77) =     15.13275  eV     1   --> A_2  D_2  S_2  
     e( 78 - 78) =     15.14958  eV     1   --> B_2  D_4  S_4  
     e( 79 - 79) =     15.15762  eV     1   --> A_2  D_2  S_2  
     e( 80 - 80) =     15.19540  eV     1   --> A_1  D_1  S_1  
     e( 81 - 81) =     15.20941  eV     1   --> A_2  D_2  S_2  
     e( 82 - 82) =     15.23296  eV     1   --> B_2  D_4  S_4  
     e( 83 - 83) =     15.27110  eV     1   --> A_2  D_2  S_2  
     e( 84 - 84) =     15.29526  eV     1   --> B_1  D_3  S_3  
     e( 85 - 85) =     15.36962  eV     1   --> B_2  D_4  S_4  
     e( 86 - 86) =     15.37598  eV     1   --> A_1  D_1  S_1  
     e( 87 - 87) =     15.44538  eV     1   --> B_1  D_3  S_3  
     e( 88 - 88) =     15.44979  eV     1   --> A_1  D_1  S_1  
     e( 89 - 89) =     15.93863  eV     1   --> B_1  D_3  S_3  
     e( 90 - 90) =     16.02603  eV     1   --> A_1  D_1  S_1  

 **************************************************************************

 **************************************************************************

                    xk=(   0.25000,   0.00000,   0.00000  )

     Band symmetry, C_2v (mm2)  point group:

     e(  1 -  1) =    -19.93362  eV     1   --> A_1  D_1  S_1  
     e(  2 -  2) =    -19.87745  eV     1   --> B_1  D_3  S_3  
     e(  3 -  3) =    -19.86377  eV     1   --> A_1  D_1  S_1  
     e(  4 -  4) =    -19.80616  eV     1   --> B_1  D_3  S_3  
     e(  5 -  5) =     -7.25820  eV     1   --> A_1  D_1  S_1  
     e(  6 -  6) =     -7.18072  eV     1   --> A_1  D_1  S_1  
     e(  7 -  7) =     -6.30458  eV     1   --> A_1  D_1  S_1  
     e(  8 -  8) =     -6.14816  eV     1   --> B_1  D_3  S_3  
     e(  9 -  9) =     -5.85929  eV     1   --> A_1  D_1  S_1  
     e( 10 - 10) =     -5.75402  eV     1   --> B_1  D_3  S_3  
     e( 11 - 11) =     -5.54223  eV     1   --> A_1  D_1  S_1  
     e( 12 - 12) =     -5.29894  eV     1   --> A_1  D_1  S_1  
     e( 13 - 13) =     -3.57473  eV     1   --> B_1  D_3  S_3  
     e( 14 - 14) =     -3.43739  eV     1   --> B_1  D_3  S_3  
     e( 15 - 15) =     -3.40820  eV     1   --> B_2  D_4  S_4  
     e( 16 - 16) =     -3.34562  eV     1   --> A_1  D_1  S_1  
     e( 17 - 17) =     -3.30531  eV     1   --> A_2  D_2  S_2  
     e( 18 - 18) =     -3.27646  eV     1   --> B_2  D_4  S_4  
     e( 19 - 19) =     -3.16799  eV     1   --> A_2  D_2  S_2  
     e( 20 - 20) =     -2.99035  eV     1   --> A_1  D_1  S_1  
     e( 21 - 21) =     -2.58616  eV     1   --> B_1  D_3  S_3  
     e( 22 - 22) =     -2.28899  eV     1   --> A_1  D_1  S_1  
     e( 23 - 23) =     -2.17901  eV     1   --> B_1  D_3  S_3  
     e( 24 - 24) =     -2.07167  eV     1   --> A_1  D_1  S_1  
     e( 25 - 25) =      5.87737  eV     1   --> A_1  D_1  S_1  
     e( 26 - 26) =      5.95660  eV     1   --> A_1  D_1  S_1  
     e( 27 - 27) =      6.74284  eV     1   --> B_2  D_4  S_4  
     e( 28 - 28) =      6.74899  eV     1   --> B_2  D_4  S_4  
     e( 29 - 29) =      6.79862  eV     1   --> B_1  D_3  S_3  
     e( 30 - 30) =      7.20850  eV     1   --> B_1  D_3  S_3  
     e( 31 - 31) =      7.79723  eV     1   --> A_1  D_1  S_1  
     e( 32 - 32) =      7.88998  eV     1   --> B_2  D_4  S_4  
     e( 33 - 33) =      7.92109  eV     1   --> B_1  D_3  S_3  
     e( 34 - 34) =      7.96521  eV     1   --> B_1  D_3  S_3  
     e( 35 - 35) =      8.07702  eV     1   --> B_2  D_4  S_4  
     e( 36 - 36) =      8.12993  eV     1   --> A_1  D_1  S_1  
     e( 37 - 37) =      8.25903  eV     1   --> A_1  D_1  S_1  
     e( 38 - 38) =      8.55927  eV     1   --> A_2  D_2  S_2  
     e( 39 - 39) =      8.73621  eV     1   --> A_2  D_2  S_2  
     e( 40 - 40) =      8.84396  eV     1   --> A_1  D_1  S_1  
     e( 41 - 41) =      8.90242  eV     1   --> B_1  D_3  S_3  
     e( 42 - 42) =      8.95236  eV     1   --> A_1  D_1  S_1  
     e( 43 - 43) =      8.97085  eV     1   --> B_2  D_4  S_4  
     e( 44 - 44) =      8.99709  eV     1   --> B_1  D_3  S_3  
     e( 45 - 45) =      9.06169  eV     1   --> A_1  D_1  S_1  
     e( 46 - 46) =      9.25404  eV     1   --> B_2  D_4  S_4  
     e( 47 - 47) =      9.31243  eV     1   --> B_1  D_3  S_3  
     e( 48 - 48) =      9.44903  eV     1   --> A_2  D_2  S_2  
     e( 49 - 49) =      9.70049  eV     1   --> B_1  D_3  S_3  
     e( 50 - 50) =      9.70296  eV     1   --> A_2  D_2  S_2  
     e( 51 - 51) =     10.11992  eV     1   --> B_1  D_3  S_3  
     e( 52 - 52) =     10.24293  eV     1   --> B_2  D_4  S_4  
     e( 53 - 53) =     10.30403  eV     1   --> B_2  D_4  S_4  
     e( 54 - 54) =     10.33734  eV     1   --> A_1  D_1  S_1  
     e( 55 - 55) =     10.42996  eV     1   --> B_1  D_3  S_3  
     e( 56 - 56) =     10.46042  eV     1   --> A_1  D_1  S_1  
     e( 57 - 57) =     11.22117  eV     1   --> A_1  D_1  S_1  
     e( 58 - 58) =     11.52185  eV     1   --> A_1  D_1  S_1  
     e( 59 - 59) =     13.67505  eV     1   --> A_1  D_1  S_1  
     e( 60 - 60) =     13.91326  eV     1   --> B_1  D_3  S_3  
     e( 61 - 61) =     14.38848  eV     1   --> A_1  D_1  S_1  
     e( 62 - 62) =     14.51382  eV     1   --> A_1  D_1  S_1  
     e( 63 - 63) =     14.57284  eV     1   --> A_1  D_1  S_1  
     e( 64 - 64) =     14.72951  eV     1   --> B_1  D_3  S_3  
     e( 65 - 65) =     14.94987  eV     1   --> A_2  D_2  S_2  
     e( 66 - 66) =     14.96409  eV     1   --> A_2  D_2  S_2  
     e( 67 - 67) =     14.96886  eV     1   --> A_1  D_1  S_1  
     e( 68 - 68) =     14.96963  eV     1   --> B_2  D_4  S_4  
     e( 69 - 69) =     14.99546  eV     1   --> B_2  D_4  S_4  
     e( 70 - 70) =     15.00515  eV     1   --> B_1  D_3  S_3  
     e( 71 - 71) =     15.04645  eV     1   --> B_1  D_3  S_3  
     e( 72 - 72) =     15.05374  eV     1   --> A_1  D_1  S_1  
     e( 73 - 73) =     15.09981  eV     1   --> B_1  D_3  S_3  
     e( 74 - 74) =     15.10166  eV     1   --> A_1  D_1  S_1  
     e( 75 - 75) =     15.12996  eV     1   --> B_2  D_4  S_4  
     e( 76 - 76) =     15.13047  eV     1   --> B_1  D_3  S_3  
     e( 77 - 77) =     15.13367  eV     1   --> A_2  D_2  S_2  
     e( 78 - 78) =     15.14723  eV     1   --> B_2  D_4  S_4  
     e( 79 - 79) =     15.15855  eV     1   --> A_2  D_2  S_2  
     e( 80 - 80) =     15.20440  eV     1   --> A_1  D_1  S_1  
     e( 81 - 81) =     15.20513  eV     1   --> A_2  D_2  S_2  
     e( 82 - 82) =     15.22774  eV     1   --> B_2  D_4  S_4  
     e( 83 - 83) =     15.25892  eV     1   --> A_2  D_2  S_2  
     e( 84 - 84) =     15.29281  eV     1   --> B_1  D_3  S_3  
     e( 85 - 85) =     15.35941  eV     1   --> B_2  D_4  S_4  
     e( 86 - 86) =     15.40906  eV     1   --> A_1  D_1  S_1  
     e( 87 - 87) =     15.44026  eV     1   --> B_1  D_3  S_3  
     e( 88 - 88) =     15.49564  eV     1   --> A_1  D_1  S_1  
     e( 89 - 89) =     15.97270  eV     1   --> B_1  D_3  S_3  
     e( 90 - 90) =     16.13267  eV     1   --> A_1  D_1  S_1  

 **************************************************************************

 **************************************************************************

                    xk=(   0.27500,   0.00000,   0.00000  )

     Band symmetry, C_2v (mm2)  point group:

     e(  1 -  1) =    -19.92505  eV     1   --> A_1  D_1  S_1  
     e(  2 -  2) =    -19.86947  eV     1   --> B_1  D_3  S_3  
     e(  3 -  3) =    -19.86077  eV     1   --> A_1  D_1  S_1  
     e(  4 -  4) =    -19.80389  eV     1   --> B_1  D_3  S_3  
     e(  5 -  5) =     -7.23707  eV     1   --> A_1  D_1  S_1  
     e(  6 -  6) =     -7.12395  eV     1   --> A_1  D_1  S_1  
     e(  7 -  7) =     -6.38782  eV     1   --> A_1  D_1  S_1  
     e(  8 -  8) =     -6.16044  eV     1   --> B_1  D_3  S_3  
     e(  9 -  9) =     -5.91800  eV     1   --> A_1  D_1  S_1  
     e( 10 - 10) =     -5.81344  eV     1   --> B_1  D_3  S_3  
     e( 11 - 11) =     -5.53611  eV     1   --> A_1  D_1  S_1  
     e( 12 - 12) =     -5.32781  eV     1   --> A_1  D_1  S_1  
     e( 13 - 13) =     -3.60455  eV     1   --> B_1  D_3  S_3  
     e( 14 - 14) =     -3.45143  eV     1   --> B_1  D_3  S_3  
     e( 15 - 15) =     -3.39389  eV     1   --> B_2  D_4  S_4  
     e( 16 - 16) =     -3.32732  eV     1   --> A_1  D_1  S_1  
     e( 17 - 17) =     -3.29110  eV     1   --> A_2  D_2  S_2  
     e( 18 - 18) =     -3.27254  eV     1   --> B_2  D_4  S_4  
     e( 19 - 19) =     -3.16463  eV     1   --> A_2  D_2  S_2  
     e( 20 - 20) =     -2.97115  eV     1   --> A_1  D_1  S_1  
     e( 21 - 21) =     -2.54501  eV     1   --> B_1  D_3  S_3  
     e( 22 - 22) =     -2.25757  eV     1   --> A_1  D_1  S_1  
     e( 23 - 23) =     -2.15867  eV     1   --> B_1  D_3  S_3  
     e( 24 - 24) =     -2.08274  eV     1   --> A_1  D_1  S_1  
     e( 25 - 25) =      5.77507  eV     1   --> A_1  D_1  S_1  
     e( 26 - 26) =      5.85375  eV     1   --> A_1  D_1  S_1  
     e( 27 - 27) =      6.76027  eV     1   --> B_1  D_3  S_3  
     e( 28 - 28) =      6.76867  eV     1   --> B_2  D_4  S_4  
     e( 29 - 29) =      6.78496  eV     1   --> B_2  D_4  S_4  
     e( 30 - 30) =      7.13563  eV     1   --> B_1  D_3  S_3  
     e( 31 - 31) =      7.78787  eV     1   --> A_1  D_1  S_1  
     e( 32 - 32) =      7.79655  eV     1   --> B_2  D_4  S_4  
     e( 33 - 33) =      7.90465  eV     1   --> B_1  D_3  S_3  
     e( 34 - 34) =      7.95819  eV     1   --> B_1  D_3  S_3  
     e( 35 - 35) =      7.97664  eV     1   --> B_2  D_4  S_4  
     e( 36 - 36) =      8.08951  eV     1   --> A_1  D_1  S_1  
     e( 37 - 37) =      8.23961  eV     1   --> A_1  D_1  S_1  
     e( 38 - 38) =      8.51363  eV     1   --> A_2  D_2  S_2  
     e( 39 - 39) =      8.67563  eV     1   --> A_2  D_2  S_2  
     e( 40 - 40) =      8.74833  eV     1   --> A_1  D_1  S_1  
     e( 41 - 41) =      8.89492  eV     1   --> B_1  D_3  S_3  
     e( 42 - 42) =      8.93958  eV     1   --> B_2  D_4  S_4  
     e( 43 - 43) =      8.94378  eV     1   --> A_1  D_1  S_1  
     e( 44 - 44) =      9.01482  eV     1   --> A_1  D_1  S_1  
     e( 45 - 45) =      9.03596  eV     1   --> B_1  D_3  S_3  
     e( 46 - 46) =      9.19147  eV     1   --> B_2  D_4  S_4  
     e( 47 - 47) =      9.24865  eV     1   --> B_1  D_3  S_3  
     e( 48 - 48) =      9.45906  eV     1   --> A_2  D_2  S_2  
     e( 49 - 49) =      9.68443  eV     1   --> A_2  D_2  S_2  
     e( 50 - 50) =      9.71968  eV     1   --> B_1  D_3  S_3  
     e( 51 - 51) =     10.21477  eV     1   --> B_1  D_3  S_3  
     e( 52 - 52) =     10.30386  eV     1   --> B_2  D_4  S_4  
     e( 53 - 53) =     10.35202  eV     1   --> A_1  D_1  S_1  
     e( 54 - 54) =     10.35731  eV     1   --> B_2  D_4  S_4  
     e( 55 - 55) =     10.46477  eV     1   --> B_1  D_3  S_3  
     e( 56 - 56) =     10.46611  eV     1   --> A_1  D_1  S_1  
     e( 57 - 57) =     11.31343  eV     1   --> A_1  D_1  S_1  
     e( 58 - 58) =     11.60061  eV     1   --> A_1  D_1  S_1  
     e( 59 - 59) =     13.84115  eV     1   --> A_1  D_1  S_1  
     e( 60 - 60) =     14.01579  eV     1   --> B_1  D_3  S_3  
     e( 61 - 61) =     14.42062  eV     1   --> A_1  D_1  S_1  
     e( 62 - 62) =     14.52735  eV     1   --> A_1  D_1  S_1  
     e( 63 - 63) =     14.62869  eV     1   --> A_1  D_1  S_1  
     e( 64 - 64) =     14.72728  eV     1   --> B_1  D_3  S_3  
     e( 65 - 65) =     14.95428  eV     1   --> A_2  D_2  S_2  
     e( 66 - 66) =     14.96992  eV     1   --> A_2  D_2  S_2  
     e( 67 - 67) =     14.97309  eV     1   --> A_1  D_1  S_1  
     e( 68 - 68) =     14.97836  eV     1   --> B_2  D_4  S_4  
     e( 69 - 69) =     15.00338  eV     1   --> B_2  D_4  S_4  
     e( 70 - 70) =     15.01770  eV     1   --> B_1  D_3  S_3  
     e( 71 - 71) =     15.06004  eV     1   --> A_1  D_1  S_1  
     e( 72 - 72) =     15.07620  eV     1   --> B_1  D_3  S_3  
     e( 73 - 73) =     15.08833  eV     1   --> B_1  D_3  S_3  
     e( 74 - 74) =     15.10653  eV     1   --> A_1  D_1  S_1  
     e( 75 - 75) =     15.13245  eV     1   --> B_2  D_4  S_4  
     e( 76 - 76) =     15.13329  eV     1   --> A_2  D_2  S_2  
     e( 77 - 77) =     15.13421  eV     1   --> B_1  D_3  S_3  
     e( 78 - 78) =     15.14486  eV     1   --> B_2  D_4  S_4  
     e( 79 - 79) =     15.15814  eV     1   --> A_2  D_2  S_2  
     e( 80 - 80) =     15.20097  eV     1   --> A_2  D_2  S_2  
     e( 81 - 81) =     15.20782  eV     1   --> A_1  D_1  S_1  
     e( 82 - 82) =     15.22446  eV     1   --> B_2  D_4  S_4  
     e( 83 - 83) =     15.24754  eV     1   --> A_2  D_2  S_2  
     e( 84 - 84) =     15.29062  eV     1   --> B_1  D_3  S_3  
     e( 85 - 85) =     15.34907  eV     1   --> B_2  D_4  S_4  
     e( 86 - 86) =     15.43385  eV     1   --> B_1  D_3  S_3  
     e( 87 - 87) =     15.44989  eV     1   --> A_1  D_1  S_1  
     e( 88 - 88) =     15.55482  eV     1   --> A_1  D_1  S_1  
     e( 89 - 89) =     16.01660  eV     1   --> B_1  D_3  S_3  
     e( 90 - 90) =     16.23840  eV     1   --> A_1  D_1  S_1  

 **************************************************************************

 **************************************************************************

                    xk=(   0.30000,   0.00000,   0.00000  )

     Band symmetry, C_2v (mm2)  point group:

     e(  1 -  1) =    -19.91639  eV     1   --> A_1  D_1  S_1  
     e(  2 -  2) =    -19.86139  eV     1   --> B_1  D_3  S_3  
     e(  3 -  3) =    -19.85811  eV     1   --> A_1  D_1  S_1  
     e(  4 -  4) =    -19.80194  eV     1   --> B_1  D_3  S_3  
     e(  5 -  5) =     -7.21536  eV     1   --> A_1  D_1  S_1  
     e(  6 -  6) =     -7.06398  eV     1   --> A_1  D_1  S_1  
     e(  7 -  7) =     -6.46869  eV     1   --> A_1  D_1  S_1  
     e(  8 -  8) =     -6.17242  eV     1   --> B_1  D_3  S_3  
     e(  9 -  9) =     -5.97700  eV     1   --> A_1  D_1  S_1  
     e( 10 - 10) =     -5.87110  eV     1   --> B_1  D_3  S_3  
     e( 11 - 11) =     -5.53007  eV     1   --> A_1  D_1  S_1  
     e( 12 - 12) =     -5.35612  eV     1   --> A_1  D_1  S_1  
     e( 13 - 13) =     -3.62815  eV     1   --> B_1  D_3  S_3  
     e( 14 - 14) =     -3.46721  eV     1   --> B_1  D_3  S_3  
     e( 15 - 15) =     -3.37935  eV     1   --> B_2  D_4  S_4  
     e( 16 - 16) =     -3.30839  eV     1   --> A_1  D_1  S_1  
     e( 17 - 17) =     -3.27664  eV     1   --> A_2  D_2  S_2  
     e( 18 - 18) =     -3.26921  eV     1   --> B_2  D_4  S_4  
     e( 19 - 19) =     -3.16188  eV     1   --> A_2  D_2  S_2  
     e( 20 - 20) =     -2.96126  eV     1   --> A_1  D_1  S_1  
     e( 21 - 21) =     -2.50334  eV     1   --> B_1  D_3  S_3  
     e( 22 - 22) =     -2.22703  eV     1   --> A_1  D_1  S_1  
     e( 23 - 23) =     -2.14369  eV     1   --> B_1  D_3  S_3  
     e( 24 - 24) =     -2.08946  eV     1   --> A_1  D_1  S_1  
     e( 25 - 25) =      5.67781  eV     1   --> A_1  D_1  S_1  
     e( 26 - 26) =      5.75316  eV     1   --> A_1  D_1  S_1  
     e( 27 - 27) =      6.72572  eV     1   --> B_1  D_3  S_3  
     e( 28 - 28) =      6.79694  eV     1   --> B_2  D_4  S_4  
     e( 29 - 29) =      6.82396  eV     1   --> B_2  D_4  S_4  
     e( 30 - 30) =      7.06471  eV     1   --> B_1  D_3  S_3  
     e( 31 - 31) =      7.70591  eV     1   --> B_2  D_4  S_4  
     e( 32 - 32) =      7.77954  eV     1   --> A_1  D_1  S_1  
     e( 33 - 33) =      7.87960  eV     1   --> B_2  D_4  S_4  
     e( 34 - 34) =      7.88959  eV     1   --> B_1  D_3  S_3  
     e( 35 - 35) =      7.95056  eV     1   --> B_1  D_3  S_3  
     e( 36 - 36) =      8.04670  eV     1   --> A_1  D_1  S_1  
     e( 37 - 37) =      8.22680  eV     1   --> A_1  D_1  S_1  
     e( 38 - 38) =      8.46993  eV     1   --> A_2  D_2  S_2  
     e( 39 - 39) =      8.61556  eV     1   --> A_2  D_2  S_2  
     e( 40 - 40) =      8.65008  eV     1   --> A_1  D_1  S_1  
     e( 41 - 41) =      8.88650  eV     1   --> B_1  D_3  S_3  
     e( 42 - 42) =      8.90877  eV     1   --> B_2  D_4  S_4  
     e( 43 - 43) =      8.94711  eV     1   --> A_1  D_1  S_1  
     e( 44 - 44) =      8.97664  eV     1   --> A_1  D_1  S_1  
     e( 45 - 45) =      9.07437  eV     1   --> B_1  D_3  S_3  
     e( 46 - 46) =      9.12950  eV     1   --> B_2  D_4  S_4  
     e( 47 - 47) =      9.18917  eV     1   --> B_1  D_3  S_3  
     e( 48 - 48) =      9.46959  eV     1   --> A_2  D_2  S_2  
     e( 49 - 49) =      9.66745  eV     1   --> A_2  D_2  S_2  
     e( 50 - 50) =      9.72687  eV     1   --> B_1  D_3  S_3  
     e( 51 - 51) =     10.30612  eV     1   --> B_1  D_3  S_3  
     e( 52 - 52) =     10.36048  eV     1   --> B_2  D_4  S_4  
     e( 53 - 53) =     10.36710  eV     1   --> A_1  D_1  S_1  
     e( 54 - 54) =     10.40668  eV     1   --> B_2  D_4  S_4  
     e( 55 - 55) =     10.47018  eV     1   --> A_1  D_1  S_1  
     e( 56 - 56) =     10.50499  eV     1   --> B_1  D_3  S_3  
     e( 57 - 57) =     11.39788  eV     1   --> A_1  D_1  S_1  
     e( 58 - 58) =     11.66786  eV     1   --> A_1  D_1  S_1  
     e( 59 - 59) =     13.99983  eV     1   --> A_1  D_1  S_1  
     e( 60 - 60) =     14.11677  eV     1   --> B_1  D_3  S_3  
     e( 61 - 61) =     14.45172  eV     1   --> A_1  D_1  S_1  
     e( 62 - 62) =     14.54083  eV     1   --> A_1  D_1  S_1  
     e( 63 - 63) =     14.67216  eV     1   --> A_1  D_1  S_1  
     e( 64 - 64) =     14.72403  eV     1   --> B_1  D_3  S_3  
     e( 65 - 65) =     14.95935  eV     1   --> A_2  D_2  S_2  
     e( 66 - 66) =     14.97617  eV     1   --> A_2  D_2  S_2  
     e( 67 - 67) =     14.97783  eV     1   --> A_1  D_1  S_1  
     e( 68 - 68) =     14.98740  eV     1   --> B_2  D_4  S_4  
     e( 69 - 69) =     15.01165  eV     1   --> B_2  D_4  S_4  
     e( 70 - 70) =     15.03019  eV     1   --> B_1  D_3  S_3  
[...]
     e( 72 - 72) =     15.01538  eV     1   --> B_1  D_3  S_3  
     e( 73 - 73) =     15.07866  eV     1   --> B_1  D_3  S_3  
     e( 74 - 74) =     15.07886  eV     1   --> A_1  D_1  S_1  
     e( 75 - 75) =     15.09662  eV     1   --> A_1  D_1  S_1  
     e( 76 - 76) =     15.11827  eV     1   --> B_2  D_4  S_4  
     e( 77 - 77) =     15.12082  eV     1   --> B_2  D_4  S_4  
     e( 78 - 78) =     15.16101  eV     1   --> A_2  D_2  S_2  
     e( 79 - 79) =     15.20219  eV     1   --> A_1  D_1  S_1  
     e( 80 - 80) =     15.20528  eV     1   --> B_2  D_4  S_4  
     e( 81 - 81) =     15.20788  eV     1   --> A_2  D_2  S_2  
     e( 82 - 82) =     15.22074  eV     1   --> B_1  D_3  S_3  
     e( 83 - 83) =     15.25618  eV     1   --> A_1  D_1  S_1  
     e( 84 - 84) =     15.30137  eV     1   --> B_2  D_4  S_4  
     e( 85 - 85) =     15.30931  eV     1   --> B_1  D_3  S_3  
     e( 86 - 86) =     15.34832  eV     1   --> A_2  D_2  S_2  
     e( 87 - 87) =     15.42739  eV     1   --> B_1  D_3  S_3  
     e( 88 - 88) =     15.43601  eV     1   --> A_1  D_1  S_1  
     e( 89 - 89) =     15.44799  eV     1   --> B_2  D_4  S_4  
     e( 90 - 90) =     15.63299  eV     1   --> A_1  D_1  S_1  

 **************************************************************************

 **************************************************************************

                    xk=(   0.05000,   0.05000,   0.00000  )

     Band symmetry, C_2v (mm2)  point group:

     e(  1 -  1) =    -19.97943  eV     1   --> A_1  D_1  S_1  
     e(  2 -  2) =    -19.91991  eV     1   --> B_2  D_4  S_4  
     e(  3 -  3) =    -19.88414  eV     1   --> A_1  D_1  S_1  
     e(  4 -  4) =    -19.82244  eV     1   --> B_2  D_4  S_4  
     e(  5 -  5) =     -7.44898  eV     1   --> A_1  D_1  S_1  
     e(  6 -  6) =     -7.37234  eV     1   --> A_1  D_1  S_1  
     e(  7 -  7) =     -6.08503  eV     1   --> B_2  D_4  S_4  
     e(  8 -  8) =     -5.82706  eV     1   --> A_1  D_1  S_1  
     e(  9 -  9) =     -5.53281  eV     1   --> B_1  D_3  S_3  
     e( 10 - 10) =     -5.53141  eV     1   --> B_1  D_3  S_3  
     e( 11 - 11) =     -5.39058  eV     1   --> B_2  D_4  S_4  
     e( 12 - 12) =     -5.10579  eV     1   --> A_1  D_1  S_1  
     e( 13 - 13) =     -3.48041  eV     1   --> B_1  D_3  S_3  
     e( 14 - 14) =     -3.47628  eV     1   --> A_1  D_1  S_1  
     e( 15 - 15) =     -3.40741  eV     1   --> A_2  D_2  S_2  
     e( 16 - 16) =     -3.36402  eV     1   --> B_2  D_4  S_4  
     e( 17 - 17) =     -3.29529  eV     1   --> B_1  D_3  S_3  
     e( 18 - 18) =     -3.27111  eV     1   --> A_1  D_1  S_1  
     e( 19 - 19) =     -3.23876  eV     1   --> B_2  D_4  S_4  
     e( 20 - 20) =     -3.21357  eV     1   --> A_2  D_2  S_2  
     e( 21 - 21) =     -2.80989  eV     1   --> B_2  D_4  S_4  
     e( 22 - 22) =     -2.46754  eV     1   --> A_1  D_1  S_1  
     e( 23 - 23) =     -2.42363  eV     1   --> B_2  D_4  S_4  
     e( 24 - 24) =     -1.94609  eV     1   --> A_1  D_1  S_1  
     e( 25 - 25) =      6.53363  eV     1   --> A_1  D_1  S_1  
     e( 26 - 26) =      6.54529  eV     1   --> A_1  D_1  S_1  
     e( 27 - 27) =      6.57169  eV     1   --> B_1  D_3  S_3  
     e( 28 - 28) =      6.61726  eV     1   --> B_1  D_3  S_3  
     e( 29 - 29) =      7.05797  eV     1   --> B_2  D_4  S_4  
     e( 30 - 30) =      7.60339  eV     1   --> B_2  D_4  S_4  
     e( 31 - 31) =      7.77839  eV     1   --> A_1  D_1  S_1  
     e( 32 - 32) =      8.05287  eV     1   --> A_2  D_2  S_2  
     e( 33 - 33) =      8.08388  eV     1   --> A_2  D_2  S_2  
     e( 34 - 34) =      8.30452  eV     1   --> A_1  D_1  S_1  
     e( 35 - 35) =      8.52107  eV     1   --> A_1  D_1  S_1  
     e( 36 - 36) =      8.60707  eV     1   --> B_1  D_3  S_3  
     e( 37 - 37) =      8.82707  eV     1   --> A_1  D_1  S_1  
     e( 38 - 38) =      8.85137  eV     1   --> B_2  D_4  S_4  
     e( 39 - 39) =      8.85717  eV     1   --> B_2  D_4  S_4  
     e( 40 - 40) =      8.86303  eV     1   --> A_2  D_2  S_2  
     e( 41 - 41) =      9.07693  eV     1   --> A_1  D_1  S_1  
     e( 42 - 42) =      9.15698  eV     1   --> A_2  D_2  S_2  
     e( 43 - 43) =      9.17692  eV     1   --> B_1  D_3  S_3  
     e( 44 - 44) =      9.19002  eV     1   --> B_2  D_4  S_4  
     e( 45 - 45) =      9.38481  eV     1   --> A_1  D_1  S_1  
     e( 46 - 46) =      9.40100  eV     1   --> B_2  D_4  S_4  
     e( 47 - 47) =      9.42798  eV     1   --> A_2  D_2  S_2  
     e( 48 - 48) =      9.69083  eV     1   --> B_1  D_3  S_3  
     e( 49 - 49) =      9.76164  eV     1   --> B_1  D_3  S_3  
     e( 50 - 50) =      9.78893  eV     1   --> A_1  D_1  S_1  
     e( 51 - 51) =      9.82119  eV     1   --> A_1  D_1  S_1  
     e( 52 - 52) =      9.82884  eV     1   --> B_2  D_4  S_4  
     e( 53 - 53) =      9.88189  eV     1   --> A_2  D_2  S_2  
     e( 54 - 54) =     10.32805  eV     1   --> B_1  D_3  S_3  
     e( 55 - 55) =     10.33056  eV     1   --> B_1  D_3  S_3  
     e( 56 - 56) =     10.34036  eV     1   --> B_2  D_4  S_4  
     e( 57 - 57) =     10.35093  eV     1   --> A_1  D_1  S_1  
     e( 58 - 58) =     10.79427  eV     1   --> A_1  D_1  S_1  
     e( 59 - 59) =     12.69983  eV     1   --> B_1  D_3  S_3  
     e( 60 - 60) =     13.34532  eV     1   --> A_2  D_2  S_2  
     e( 61 - 61) =     14.03323  eV     1   --> B_1  D_3  S_3  
     e( 62 - 62) =     14.17168  eV     1   --> A_1  D_1  S_1  
     e( 63 - 63) =     14.42161  eV     1   --> A_1  D_1  S_1  
     e( 64 - 64) =     14.72602  eV     1   --> A_2  D_2  S_2  
     e( 65 - 65) =     14.76468  eV     1   --> B_2  D_4  S_4  
     e( 66 - 66) =     14.90845  eV     1   --> A_1  D_1  S_1  
     e( 67 - 67) =     14.93620  eV     1   --> B_2  D_4  S_4  
     e( 68 - 68) =     14.93709  eV     1   --> A_2  D_2  S_2  
     e( 69 - 69) =     14.94007  eV     1   --> B_2  D_4  S_4  
     e( 70 - 70) =     14.94764  eV     1   --> B_1  D_3  S_3  
     e( 71 - 71) =     14.96502  eV     1   --> A_1  D_1  S_1  
     e( 72 - 72) =     14.99448  eV     1   --> A_1  D_1  S_1  
     e( 73 - 73) =     15.00582  eV     1   --> B_1  D_3  S_3  
     e( 74 - 74) =     15.07421  eV     1   --> B_1  D_3  S_3  
     e( 75 - 75) =     15.09022  eV     1   --> A_1  D_1  S_1  
     e( 76 - 76) =     15.11800  eV     1   --> B_2  D_4  S_4  
     e( 77 - 77) =     15.12677  eV     1   --> B_2  D_4  S_4  
     e( 78 - 78) =     15.14758  eV     1   --> A_2  D_2  S_2  
     e( 79 - 79) =     15.16730  eV     1   --> A_1  D_1  S_1  
     e( 80 - 80) =     15.18833  eV     1   --> B_1  D_3  S_3  
     e( 81 - 81) =     15.21605  eV     1   --> B_2  D_4  S_4  
     e( 82 - 82) =     15.21721  eV     1   --> A_2  D_2  S_2  
     e( 83 - 83) =     15.27050  eV     1   --> A_1  D_1  S_1  
     e( 84 - 84) =     15.29383  eV     1   --> B_1  D_3  S_3  
     e( 85 - 85) =     15.32472  eV     1   --> B_2  D_4  S_4  
     e( 86 - 86) =     15.34734  eV     1   --> A_2  D_2  S_2  
     e( 87 - 87) =     15.42805  eV     1   --> A_1  D_1  S_1  
     e( 88 - 88) =     15.42894  eV     1   --> B_1  D_3  S_3  
     e( 89 - 89) =     15.44694  eV     1   --> B_2  D_4  S_4  
     e( 90 - 90) =     15.57234  eV     1   --> A_1  D_1  S_1  

 **************************************************************************

 **************************************************************************

                    xk=(   0.02500,   0.02500,   0.00000  )

     Band symmetry, C_2v (mm2)  point group:

     e(  1 -  1) =    -19.98294  eV     1   --> A_1  D_1  S_1  
     e(  2 -  2) =    -19.92316  eV     1   --> B_2  D_4  S_4  
     e(  3 -  3) =    -19.88595  eV     1   --> A_1  D_1  S_1  
     e(  4 -  4) =    -19.82393  eV     1   --> B_2  D_4  S_4  
     e(  5 -  5) =     -7.46747  eV     1   --> A_1  D_1  S_1  
     e(  6 -  6) =     -7.38141  eV     1   --> A_1  D_1  S_1  
     e(  7 -  7) =     -6.08113  eV     1   --> B_2  D_4  S_4  
     e(  8 -  8) =     -5.80306  eV     1   --> A_1  D_1  S_1  
     e(  9 -  9) =     -5.50979  eV     1   --> B_1  D_3  S_3  
     e( 10 - 10) =     -5.50925  eV     1   --> B_1  D_3  S_3  
     e( 11 - 11) =     -5.36013  eV     1   --> B_2  D_4  S_4  
     e( 12 - 12) =     -5.08374  eV     1   --> A_1  D_1  S_1  
     e( 13 - 13) =     -3.48848  eV     1   --> B_1  D_3  S_3  
     e( 14 - 14) =     -3.48696  eV     1   --> A_1  D_1  S_1  
     e( 15 - 15) =     -3.39255  eV     1   --> A_2  D_2  S_2  
     e( 16 - 16) =     -3.38116  eV     1   --> B_2  D_4  S_4  
     e( 17 - 17) =     -3.30496  eV     1   --> B_1  D_3  S_3  
     e( 18 - 18) =     -3.29868  eV     1   --> A_1  D_1  S_1  
     e( 19 - 19) =     -3.20798  eV     1   --> B_2  D_4  S_4  
     e( 20 - 20) =     -3.20085  eV     1   --> A_2  D_2  S_2  
     e( 21 - 21) =     -2.82804  eV     1   --> B_2  D_4  S_4  
     e( 22 - 22) =     -2.48190  eV     1   --> A_1  D_1  S_1  
     e( 23 - 23) =     -2.46138  eV     1   --> B_2  D_4  S_4  
     e( 24 - 24) =     -1.93235  eV     1   --> A_1  D_1  S_1  
     e( 25 - 25) =      6.56267  eV     1   --> A_1  D_1  S_1  
     e( 26 - 26) =      6.57226  eV     1   --> B_1  D_3  S_3  
     e( 27 - 27) =      6.59968  eV     1   --> A_1  D_1  S_1  
     e( 28 - 28) =      6.61828  eV     1   --> B_1  D_3  S_3  
     e( 29 - 29) =      7.07764  eV     1   --> B_2  D_4  S_4  
     e( 30 - 30) =      7.62009  eV     1   --> B_2  D_4  S_4  
     e( 31 - 31) =      7.75949  eV     1   --> A_1  D_1  S_1  
     e( 32 - 32) =      8.07323  eV     1   --> A_2  D_2  S_2  
     e( 33 - 33) =      8.11734  eV     1   --> A_2  D_2  S_2  
     e( 34 - 34) =      8.31432  eV     1   --> A_1  D_1  S_1  
     e( 35 - 35) =      8.62139  eV     1   --> A_1  D_1  S_1  
     e( 36 - 36) =      8.64518  eV     1   --> B_1  D_3  S_3  
     e( 37 - 37) =      8.86328  eV     1   --> B_2  D_4  S_4  
     e( 38 - 38) =      8.86538  eV     1   --> A_2  D_2  S_2  
     e( 39 - 39) =      8.92370  eV     1   --> B_2  D_4  S_4  
     e( 40 - 40) =      8.97737  eV     1   --> A_1  D_1  S_1  
     e( 41 - 41) =      9.06548  eV     1   --> A_1  D_1  S_1  
     e( 42 - 42) =      9.10250  eV     1   --> A_2  D_2  S_2  
     e( 43 - 43) =      9.12439  eV     1   --> B_2  D_4  S_4  
     e( 44 - 44) =      9.23222  eV     1   --> B_1  D_3  S_3  
     e( 45 - 45) =      9.30999  eV     1   --> A_1  D_1  S_1  
     e( 46 - 46) =      9.39700  eV     1   --> B_2  D_4  S_4  
     e( 47 - 47) =      9.40317  eV     1   --> A_2  D_2  S_2  
     e( 48 - 48) =      9.79667  eV     1   --> B_1  D_3  S_3  
     e( 49 - 49) =      9.83453  eV     1   --> B_1  D_3  S_3  
     e( 50 - 50) =      9.86004  eV     1   --> A_1  D_1  S_1  
     e( 51 - 51) =      9.86708  eV     1   --> A_1  D_1  S_1  
     e( 52 - 52) =      9.86965  eV     1   --> B_2  D_4  S_4  
     e( 53 - 53) =      9.88411  eV     1   --> A_2  D_2  S_2  
     e( 54 - 54) =     10.14698  eV     1   --> B_1  D_3  S_3  
     e( 55 - 55) =     10.14850  eV     1   --> B_1  D_3  S_3  
     e( 56 - 56) =     10.32013  eV     1   --> A_1  D_1  S_1  
     e( 57 - 57) =     10.33869  eV     1   --> B_2  D_4  S_4  
     e( 58 - 58) =     10.74119  eV     1   --> A_1  D_1  S_1  
     e( 59 - 59) =     12.62198  eV     1   --> B_1  D_3  S_3  
     e( 60 - 60) =     13.30046  eV     1   --> A_2  D_2  S_2  
     e( 61 - 61) =     13.97742  eV     1   --> B_1  D_3  S_3  
     e( 62 - 62) =     14.14926  eV     1   --> A_1  D_1  S_1  
     e( 63 - 63) =     14.40899  eV     1   --> A_1  D_1  S_1  
     e( 64 - 64) =     14.72317  eV     1   --> A_2  D_2  S_2  
     e( 65 - 65) =     14.74093  eV     1   --> B_2  D_4  S_4  
     e( 66 - 66) =     14.90201  eV     1   --> A_1  D_1  S_1  
     e( 67 - 67) =     14.92050  eV     1   --> A_1  D_1  S_1  
     e( 68 - 68) =     14.93532  eV     1   --> A_2  D_2  S_2  
     e( 69 - 69) =     14.93551  eV     1   --> B_2  D_4  S_4  
     e( 70 - 70) =     14.93607  eV     1   --> B_2  D_4  S_4  
     e( 71 - 71) =     14.95347  eV     1   --> B_1  D_3  S_3  
     e( 72 - 72) =     14.95822  eV     1   --> A_1  D_1  S_1  
     e( 73 - 73) =     14.99864  eV     1   --> B_1  D_3  S_3  
     e( 74 - 74) =     15.07152  eV     1   --> B_1  D_3  S_3  
     e( 75 - 75) =     15.08603  eV     1   --> A_1  D_1  S_1  
     e( 76 - 76) =     15.11613  eV     1   --> B_2  D_4  S_4  
     e( 77 - 77) =     15.13235  eV     1   --> B_2  D_4  S_4  
     e( 78 - 78) =     15.13786  eV     1   --> A_2  D_2  S_2  
     e( 79 - 79) =     15.16460  eV     1   --> A_1  D_1  S_1  
     e( 80 - 80) =     15.17065  eV     1   --> B_1  D_3  S_3  
     e( 81 - 81) =     15.22317  eV     1   --> B_2  D_4  S_4  
     e( 82 - 82) =     15.22341  eV     1   --> A_2  D_2  S_2  
     e( 83 - 83) =     15.27968  eV     1   --> A_1  D_1  S_1  
     e( 84 - 84) =     15.28545  eV     1   --> B_1  D_3  S_3  
     e( 85 - 85) =     15.34121  eV     1   --> B_2  D_4  S_4  
     e( 86 - 86) =     15.34719  eV     1   --> A_2  D_2  S_2  
     e( 87 - 87) =     15.42952  eV     1   --> A_1  D_1  S_1  
     e( 88 - 88) =     15.43020  eV     1   --> B_1  D_3  S_3  
     e( 89 - 89) =     15.44519  eV     1   --> B_2  D_4  S_4  
     e( 90 - 90) =     15.53557  eV     1   --> A_1  D_1  S_1  

 **************************************************************************

 **************************************************************************

                    xk=(   0.00000,   0.00000,   0.00000  )

     point group D_4h(4/mmm)
     there are 10 classes
     the character table:

       E     2C4   C2    2C2'  2C2'' i     2S4   s_h   2s_v  2s_d 
A_1g   1.00  1.00  1.00  1.00  1.00  1.00  1.00  1.00  1.00  1.00
A_2g   1.00  1.00  1.00 -1.00 -1.00  1.00  1.00  1.00 -1.00 -1.00
B_1g   1.00 -1.00  1.00  1.00 -1.00  1.00 -1.00  1.00  1.00 -1.00
B_2g   1.00 -1.00  1.00 -1.00  1.00  1.00 -1.00  1.00 -1.00  1.00
E_g    2.00  0.00 -2.00  0.00  0.00  2.00  0.00 -2.00  0.00  0.00
A_1u   1.00  1.00  1.00  1.00  1.00 -1.00 -1.00 -1.00 -1.00 -1.00
A_2u   1.00  1.00  1.00 -1.00 -1.00 -1.00 -1.00 -1.00  1.00  1.00
B_1u   1.00 -1.00  1.00  1.00 -1.00 -1.00  1.00 -1.00 -1.00  1.00
B_2u   1.00 -1.00  1.00 -1.00  1.00 -1.00  1.00 -1.00  1.00 -1.00
E_u    2.00  0.00 -2.00  0.00  0.00 -2.00  0.00  2.00  0.00  0.00

     the symmetry operations in each class and the name of the first element:

     E        1
                                                                 
     2C4      7    8
                                                                 
     C2       2
                                                                 
     2C2'     3    4
                                                                 
     2C2''    5    6
                                                                 
     i        9
                                                                 
     2S4     15   16
                                                                 
     s_h     10
                                                                 
     2s_v    11   12
                                                                 
     2s_d    13   14
                                                                 

     Band symmetry, D_4h(4/mmm) point group:

     e(  1 -  1) =    -19.98413  eV     1   --> A_1g X_1  M_1  
     e(  2 -  2) =    -19.92425  eV     1   --> A_2u X_4' M_4' 
     e(  3 -  3) =    -19.88655  eV     1   --> A_1g X_1  M_1  
     e(  4 -  4) =    -19.82443  eV     1   --> A_2u X_4' M_4' 
     e(  5 -  5) =     -7.47367  eV     1   --> A_1g X_1  M_1  
     e(  6 -  6) =     -7.38446  eV     1   --> A_1g X_1  M_1  
     e(  7 -  7) =     -6.07976  eV     1   --> A_2u X_4' M_4' 
     e(  8 -  8) =     -5.79471  eV     1   --> A_1g X_1  M_1  
     e(  9 -  9) =     -5.50201  eV     1   --> B_1g X_2  M_2  
     e( 10 - 10) =     -5.50167  eV     1   --> B_1g X_2  M_2  
     e( 11 - 11) =     -5.34947  eV     1   --> A_2u X_4' M_4' 
     e( 12 - 12) =     -5.07587  eV     1   --> A_1g X_1  M_1  
     e( 13 - 14) =     -3.49128  eV     2   --> E_u  X_5' M_5' 
     e( 15 - 16) =     -3.38754  eV     2   --> E_g  X_5  M_5  
     e( 17 - 18) =     -3.30829  eV     2   --> E_u  X_5' M_5' 
     e( 19 - 20) =     -3.19657  eV     2   --> E_g  X_5  M_5  
     e( 21 - 21) =     -2.83406  eV     1   --> A_2u X_4' M_4' 
     e( 22 - 22) =     -2.48653  eV     1   --> A_1g X_1  M_1  
     e( 23 - 23) =     -2.47532  eV     1   --> A_2u X_4' M_4' 
     e( 24 - 24) =     -1.92778  eV     1   --> A_1g X_1  M_1  
     e( 25 - 26) =      6.57232  eV     2   --> E_u  X_5' M_5' 
     e( 27 - 28) =      6.61844  eV     2   --> E_u  X_5' M_5' 
     e( 29 - 29) =      7.08470  eV     1   --> A_2u X_4' M_4' 
     e( 30 - 30) =      7.62585  eV     1   --> A_2u X_4' M_4' 
     e( 31 - 31) =      7.75252  eV     1   --> A_1g X_1  M_1  
     e( 32 - 32) =      8.08043  eV     1   --> B_2u X_3' M_3' 
     e( 33 - 33) =      8.12954  eV     1   --> B_2u X_3' M_3' 
     e( 34 - 34) =      8.31780  eV     1   --> A_1g X_1  M_1  
     e( 35 - 36) =      8.65875  eV     2   --> E_u  X_5' M_5' 
     e( 37 - 38) =      8.86510  eV     2   --> E_g  X_5  M_5  
     e( 39 - 39) =      8.96637  eV     1   --> A_2u X_4' M_4' 
     e( 40 - 40) =      9.05623  eV     1   --> B_2g X_3  M_3  
     e( 41 - 41) =      9.05704  eV     1   --> B_2g X_3  M_3  
     e( 42 - 43) =      9.08309  eV     2   --> E_g  X_5  M_5  
     e( 44 - 45) =      9.25308  eV     2   --> E_u  X_5' M_5' 
     e( 46 - 47) =      9.39562  eV     2   --> E_g  X_5  M_5  
     e( 48 - 49) =      9.87771  eV     2   --> E_u  X_5' M_5' 
     e( 50 - 51) =      9.88498  eV     2   --> E_g  X_5  M_5  
     e( 52 - 53) =      9.90039  eV     2   --> E_u  X_5' M_5' 
     e( 54 - 54) =     10.04131  eV     1   --> B_1g X_2  M_2  
     e( 55 - 55) =     10.04305  eV     1   --> B_1g X_2  M_2  
     e( 56 - 56) =     10.30791  eV     1   --> A_1g X_1  M_1  
     e( 57 - 57) =     10.33816  eV     1   --> A_2u X_4' M_4' 
     e( 58 - 58) =     10.72052  eV     1   --> A_1g X_1  M_1  
     e( 59 - 59) =     12.59557  eV     1   --> B_1g X_2  M_2  
     e( 60 - 60) =     13.28528  eV     1   --> B_2u X_3' M_3' 
     e( 61 - 61) =     13.95830  eV     1   --> B_1g X_2  M_2  
     e( 62 - 62) =     14.14167  eV     1   --> A_1g X_1  M_1  
     e( 63 - 63) =     14.40389  eV     1   --> A_1g X_1  M_1  
     e( 64 - 64) =     14.72230  eV     1   --> B_2u X_3' M_3' 
     e( 65 - 65) =     14.73242  eV     1   --> A_2u X_4' M_4' 
     e( 66 - 66) =     14.87784  eV     1   --> A_1g X_1  M_1  
     e( 67 - 67) =     14.91480  eV     1   --> B_2g X_3  M_3  
     e( 68 - 69) =     14.93469  eV     2   --> E_g  X_5  M_5  
     e( 70 - 70) =     14.93543  eV     1   --> B_1u X_2' M_2' 
     e( 71 - 72) =     14.95574  eV     2   --> E_u  X_5' M_5' 
     e( 73 - 73) =     14.99558  eV     1   --> B_1g X_2  M_2  
     e( 74 - 74) =     15.07063  eV     1   --> B_1g X_2  M_2  
     e( 75 - 75) =     15.08431  eV     1   --> B_2g X_3  M_3  
     e( 76 - 76) =     15.11546  eV     1   --> B_1u X_2' M_2' 
     e( 77 - 78) =     15.13415  eV     2   --> E_g  X_5  M_5  
     e( 79 - 80) =     15.16504  eV     2   --> E_u  X_5' M_5' 
     e( 81 - 82) =     15.22562  eV     2   --> E_g  X_5  M_5  
     e( 83 - 84) =     15.28279  eV     2   --> E_u  X_5' M_5' 
     e( 85 - 86) =     15.34717  eV     2   --> E_g  X_5  M_5  
     e( 87 - 88) =     15.43062  eV     2   --> E_u  X_5' M_5' 
     e( 89 - 89) =     15.44439  eV     1   --> A_2u X_4' M_4' 
     e( 90 - 90) =     15.52312  eV     1   --> A_1g X_1  M_1  

 **************************************************************************
 
     BANDS        :   3m 8.39s CPU   3m48.00s WALL

 
   This run was terminated on:   1:55:49  31Dec2023            

=------------------------------------------------------------------------------=
   JOB DONE.
=------------------------------------------------------------------------------=
