
     Program PWSCF v.7.2 starts on 31Dec2023 at  1:42:12 

     This program is part of the open-source Quantum ESPRESSO suite
     for quantum simulation of materials; please cite
         "P. Giannozzi et al., J. Phys.:Condens. Matter 21 395502 (2009);
         "P. Giannozzi et al., J. Phys.:Condens. Matter 29 465901 (2017);
         "P. Giannozzi et al., J. Chem. Phys. 152 154105 (2020);
          URL http://www.quantum-espresso.org", 
     in publications or presentations arising from this work. More details at
     http://www.quantum-espresso.org/quote

     Parallel version (MPI), running on     4 processors

     MPI processes distributed on     1 nodes
     5837 MiB available memory on the printing compute node when the environment starts
 
     Waiting for input...
     Reading input from standard input

     Current dimensions of program PWSCF are:
     Max number of different atomic species (ntypx) = 10
     Max number of k-points (npk) =  40000
     Max angular momentum in pseudopotentials (lmaxx) =  4
     file La.pz-spfn-kjpaw_psl.1.0.0.UPF: wavefunction(s)  5S 5D 4F renormalized
     file Cu.pz-dn-rrkjus_psl.1.0.0.UPF: wavefunction(s)  3D renormalized

     Atomic positions and unit cell read from directory:
     ./La2CuO4/La2CuO4.save/
 
     Found identity + (  0.5000  0.5000  0.5000) symmetry
     This is a supercell, fractional translations are disabled
 
     R & G space division:  proc/nbgrp/npool/nimage =       4
     Subspace diagonalization in iterative solution of the eigenvalue problem:
     a serial algorithm will be used

 
     Parallelization info
     --------------------
     sticks:   dense  smooth     PW     G-vecs:    dense   smooth      PW
     Min         741     370    105               105865    37454    5675
     Max         742     371    106               105880    37469    5690
     Sum        2965    1481    421               423481   149831   22717
 
     Using Slab Decomposition
 


     bravais-lattice index     =            6
     lattice parameter (alat)  =       7.2070  a.u.
     unit-cell volume          =    1298.0901 (a.u.)^3
     number of atoms/cell      =           14
     number of atomic types    =            3
     number of electrons       =       114.00
     number of Kohn-Sham states=           90
     kinetic-energy cutoff     =      90.0000  Ry
     charge density cutoff     =     720.0000  Ry
     Exchange-correlation= LDA
                           (   1   1   0   0   0   0   0)

     celldm(1)=   7.207037  celldm(2)=   0.000000  celldm(3)=   3.467644
     celldm(4)=   0.000000  celldm(5)=   0.000000  celldm(6)=   0.000000

     crystal axes: (cart. coord. in units of alat)
               a(1) = (   1.000000   0.000000   0.000000 )  
               a(2) = (   0.000000   1.000000   0.000000 )  
               a(3) = (   0.000000   0.000000   3.467644 )  

     reciprocal axes: (cart. coord. in units 2 pi/alat)
               b(1) = (  1.000000  0.000000  0.000000 )  
               b(2) = (  0.000000  1.000000  0.000000 )  
               b(3) = (  0.000000  0.000000  0.288380 )  


     PseudoPot. # 1 for La read from file:
     ~/q-e/pslibrary/pz/PSEUDOPOTENTIALS/La.pz-spfn-kjpaw_psl.1.0.0.UPF
     MD5 check sum: Not computed, couldn't open file
     Pseudo is Projector augmented-wave + core cor, Zval = 11.0
     Generated using 'atomic' code by A. Dal Corso  v.7.2
     Shape of augmentation charge: PSQ
     Using radial grid of 1253 points,  8 beta functions with: 
                l(1) =   0
                l(2) =   0
                l(3) =   1
                l(4) =   1
                l(5) =   2
                l(6) =   2
                l(7) =   3
                l(8) =   3
     Q(r) pseudized with 0 coefficients 


     PseudoPot. # 2 for Cu read from file:
     ~/q-e/pslibrary/pz/PSEUDOPOTENTIALS/Cu.pz-dn-rrkjus_psl.1.0.0.UPF
     MD5 check sum: Not computed, couldn't open file
     Pseudo is Ultrasoft + core correction, Zval = 11.0
     Generated using 'atomic' code by A. Dal Corso  v.7.2
     Using radial grid of 1199 points,  6 beta functions with: 
                l(1) =   0
                l(2) =   0
                l(3) =   1
                l(4) =   1
                l(5) =   2
                l(6) =   2
     Q(r) pseudized with 0 coefficients 


     PseudoPot. # 3 for O  read from file:
     ~/q-e/pslibrary/pz/PSEUDOPOTENTIALS/O.pz-n-rrkjus_psl.1.0.0.UPF
     MD5 check sum: Not computed, couldn't open file
     Pseudo is Ultrasoft + core correction, Zval =  6.0
     Generated using 'atomic' code by A. Dal Corso  v.7.2
     Using radial grid of 1095 points,  4 beta functions with: 
                l(1) =   0
                l(2) =   0
                l(3) =   1
                l(4) =   1
     Q(r) pseudized with 0 coefficients 


     atomic species   valence    mass     pseudopotential
     La               11.00   138.91000     La( 1.00)
     Cu               11.00    63.54600     Cu( 1.00)
     O                 6.00    15.99900     O ( 1.00)

     16 Sym. Ops., with inversion, found


                                    s                        frac. trans.

      isym =  1     identity                                     

 cryst.   s( 1) = (     1          0          0      )
                  (     0          1          0      )
                  (     0          0          1      )

 cart.    s( 1) = (  1.0000000  0.0000000  0.0000000 )
                  (  0.0000000  1.0000000  0.0000000 )
                  (  0.0000000  0.0000000  1.0000000 )


      isym =  2     180 deg rotation - cart. axis [0,0,1]        

 cryst.   s( 2) = (    -1          0          0      )
                  (     0         -1          0      )
                  (     0          0          1      )

 cart.    s( 2) = ( -1.0000000  0.0000000  0.0000000 )
                  (  0.0000000 -1.0000000  0.0000000 )
                  (  0.0000000  0.0000000  1.0000000 )


      isym =  3     180 deg rotation - cart. axis [0,1,0]        

 cryst.   s( 3) = (    -1          0          0      )
                  (     0          1          0      )
                  (     0          0         -1      )

 cart.    s( 3) = ( -1.0000000  0.0000000  0.0000000 )
                  (  0.0000000  1.0000000  0.0000000 )
                  (  0.0000000  0.0000000 -1.0000000 )


      isym =  4     180 deg rotation - cart. axis [1,0,0]        

 cryst.   s( 4) = (     1          0          0      )
                  (     0         -1          0      )
                  (     0          0         -1      )

 cart.    s( 4) = (  1.0000000  0.0000000  0.0000000 )
                  (  0.0000000 -1.0000000  0.0000000 )
                  (  0.0000000  0.0000000 -1.0000000 )


      isym =  5     180 deg rotation - cart. axis [1,1,0]        

 cryst.   s( 5) = (     0          1          0      )
                  (     1          0          0      )
                  (     0          0         -1      )

 cart.    s( 5) = (  0.0000000  1.0000000  0.0000000 )
                  (  1.0000000  0.0000000  0.0000000 )
                  (  0.0000000  0.0000000 -1.0000000 )


      isym =  6     180 deg rotation - cart. axis [1,-1,0]       

 cryst.   s( 6) = (     0         -1          0      )
                  (    -1          0          0      )
                  (     0          0         -1      )

 cart.    s( 6) = (  0.0000000 -1.0000000  0.0000000 )
                  ( -1.0000000  0.0000000  0.0000000 )
                  (  0.0000000  0.0000000 -1.0000000 )


      isym =  7      90 deg rotation - cart. axis [0,0,-1]       

 cryst.   s( 7) = (     0         -1          0      )
                  (     1          0          0      )
                  (     0          0          1      )

 cart.    s( 7) = (  0.0000000  1.0000000  0.0000000 )
                  ( -1.0000000  0.0000000  0.0000000 )
                  (  0.0000000  0.0000000  1.0000000 )


      isym =  8      90 deg rotation - cart. axis [0,0,1]        

 cryst.   s( 8) = (     0          1          0      )
                  (    -1          0          0      )
                  (     0          0          1      )

 cart.    s( 8) = (  0.0000000 -1.0000000  0.0000000 )
                  (  1.0000000  0.0000000  0.0000000 )
                  (  0.0000000  0.0000000  1.0000000 )


      isym =  9     inversion                                    

 cryst.   s( 9) = (    -1          0          0      )
                  (     0         -1          0      )
                  (     0          0         -1      )

 cart.    s( 9) = ( -1.0000000  0.0000000  0.0000000 )
                  (  0.0000000 -1.0000000  0.0000000 )
                  (  0.0000000  0.0000000 -1.0000000 )


      isym = 10     inv. 180 deg rotation - cart. axis [0,0,1]   

 cryst.   s(10) = (     1          0          0      )
                  (     0          1          0      )
                  (     0          0         -1      )

 cart.    s(10) = (  1.0000000  0.0000000  0.0000000 )
                  (  0.0000000  1.0000000  0.0000000 )
                  (  0.0000000  0.0000000 -1.0000000 )


      isym = 11     inv. 180 deg rotation - cart. axis [0,1,0]   

 cryst.   s(11) = (     1          0          0      )
                  (     0         -1          0      )
                  (     0          0          1      )

 cart.    s(11) = (  1.0000000  0.0000000  0.0000000 )
                  (  0.0000000 -1.0000000  0.0000000 )
                  (  0.0000000  0.0000000  1.0000000 )


      isym = 12     inv. 180 deg rotation - cart. axis [1,0,0]   

 cryst.   s(12) = (    -1          0          0      )
                  (     0          1          0      )
                  (     0          0          1      )

 cart.    s(12) = ( -1.0000000  0.0000000  0.0000000 )
                  (  0.0000000  1.0000000  0.0000000 )
                  (  0.0000000  0.0000000  1.0000000 )


      isym = 13     inv. 180 deg rotation - cart. axis [1,1,0]   

 cryst.   s(13) = (     0         -1          0      )
                  (    -1          0          0      )
                  (     0          0          1      )

 cart.    s(13) = (  0.0000000 -1.0000000  0.0000000 )
                  ( -1.0000000  0.0000000  0.0000000 )
                  (  0.0000000  0.0000000  1.0000000 )


      isym = 14     inv. 180 deg rotation - cart. axis [1,-1,0]  

 cryst.   s(14) = (     0          1          0      )
                  (     1          0          0      )
                  (     0          0          1      )

 cart.    s(14) = (  0.0000000  1.0000000  0.0000000 )
                  (  1.0000000  0.0000000  0.0000000 )
                  (  0.0000000  0.0000000  1.0000000 )


      isym = 15     inv.  90 deg rotation - cart. axis [0,0,-1]  

 cryst.   s(15) = (     0          1          0      )
                  (    -1          0          0      )
                  (     0          0         -1      )

 cart.    s(15) = (  0.0000000 -1.0000000  0.0000000 )
                  (  1.0000000  0.0000000  0.0000000 )
                  (  0.0000000  0.0000000 -1.0000000 )


      isym = 16     inv.  90 deg rotation - cart. axis [0,0,1]   

 cryst.   s(16) = (     0         -1          0      )
                  (     1          0          0      )
                  (     0          0         -1      )

 cart.    s(16) = (  0.0000000  1.0000000  0.0000000 )
                  ( -1.0000000  0.0000000  0.0000000 )
                  (  0.0000000  0.0000000 -1.0000000 )


     point group D_4h(4/mmm)
     there are 10 classes
     the character table:

       E     2C4   C2    2C2'  2C2'' i     2S4   s_h   2s_v  2s_d 
A_1g   1.00  1.00  1.00  1.00  1.00  1.00  1.00  1.00  1.00  1.00
A_2g   1.00  1.00  1.00 -1.00 -1.00  1.00  1.00  1.00 -1.00 -1.00
B_1g   1.00 -1.00  1.00  1.00 -1.00  1.00 -1.00  1.00  1.00 -1.00
B_2g   1.00 -1.00  1.00 -1.00  1.00  1.00 -1.00  1.00 -1.00  1.00
E_g    2.00  0.00 -2.00  0.00  0.00  2.00  0.00 -2.00  0.00  0.00
A_1u   1.00  1.00  1.00  1.00  1.00 -1.00 -1.00 -1.00 -1.00 -1.00
A_2u   1.00  1.00  1.00 -1.00 -1.00 -1.00 -1.00 -1.00  1.00  1.00
B_1u   1.00 -1.00  1.00  1.00 -1.00 -1.00  1.00 -1.00 -1.00  1.00
B_2u   1.00 -1.00  1.00 -1.00  1.00 -1.00  1.00 -1.00  1.00 -1.00
E_u    2.00  0.00 -2.00  0.00  0.00 -2.00  0.00  2.00  0.00  0.00

     the symmetry operations in each class and the name of the first element:

     E        1
          identity                                               
     2C4      7    8
           90 deg rotation - cart. axis [0,0,-1]                 
     C2       2
          180 deg rotation - cart. axis [0,0,1]                  
     2C2'     3    4
          180 deg rotation - cart. axis [0,1,0]                  
     2C2''    5    6
          180 deg rotation - cart. axis [1,1,0]                  
     i        9
          inversion                                              
     2S4     15   16
          inv.  90 deg rotation - cart. axis [0,0,-1]            
     s_h     10
          inv. 180 deg rotation - cart. axis [0,0,1]             
     2s_v    11   12
          inv. 180 deg rotation - cart. axis [0,1,0]             
     2s_d    13   14
          inv. 180 deg rotation - cart. axis [1,1,0]             

   Cartesian axes

     site n.     atom                  positions (alat units)
         1        La     tau(   1) = (   0.0000000   0.0000000   1.2514380  )
         2        La     tau(   2) = (   0.5000000   0.5000000   0.4823839  )
         3        La     tau(   3) = (   0.5000000   0.5000000   2.9852599  )
         4        La     tau(   4) = (   0.0000000   0.0000000   2.2162058  )
         5        Cu     tau(   5) = (   0.0000000   0.0000000   0.0000000  )
         6        Cu     tau(   6) = (   0.5000000   0.5000000   1.7338219  )
         7        O      tau(   7) = (   0.0000000   0.5000000   0.0000000  )
         8        O      tau(   8) = (   0.5000000   0.0000000   0.0000000  )
         9        O      tau(   9) = (   0.0000000   0.0000000   0.6457793  )
        10        O      tau(  10) = (   0.5000000   0.5000000   1.0880426  )
        11        O      tau(  11) = (   0.5000000   0.0000000   1.7338219  )
        12        O      tau(  12) = (   0.0000000   0.5000000   1.7338219  )
        13        O      tau(  13) = (   0.5000000   0.5000000   2.3796012  )
        14        O      tau(  14) = (   0.0000000   0.0000000   2.8218645  )

   Crystallographic axes

     site n.     atom                  positions (cryst. coord.)
         1        La     tau(   1) = (  0.0000000  0.0000000  0.3608900  )
         2        La     tau(   2) = (  0.5000000  0.5000000  0.1391100  )
         3        La     tau(   3) = (  0.5000000  0.5000000  0.8608900  )
         4        La     tau(   4) = (  0.0000000  0.0000000  0.6391100  )
         5        Cu     tau(   5) = (  0.0000000  0.0000000  0.0000000  )
         6        Cu     tau(   6) = (  0.5000000  0.5000000  0.5000000  )
         7        O      tau(   7) = (  0.0000000  0.5000000  0.0000000  )
         8        O      tau(   8) = (  0.5000000  0.0000000  0.0000000  )
         9        O      tau(   9) = (  0.0000000  0.0000000  0.1862300  )
        10        O      tau(  10) = (  0.5000000  0.5000000  0.3137700  )
        11        O      tau(  11) = (  0.5000000  0.0000000  0.5000000  )
        12        O      tau(  12) = (  0.0000000  0.5000000  0.5000000  )
        13        O      tau(  13) = (  0.5000000  0.5000000  0.6862300  )
        14        O      tau(  14) = (  0.0000000  0.0000000  0.8137700  )

     number of k points=    61
                       cart. coord. in units 2pi/alat
        k(    1) = (   0.0000000   0.0000000   0.0000000), wk =   0.0327869
        k(    2) = (   0.0250000   0.0000000   0.0000000), wk =   0.0327869
        k(    3) = (   0.0500000   0.0000000   0.0000000), wk =   0.0327869
        k(    4) = (   0.0750000   0.0000000   0.0000000), wk =   0.0327869
        k(    5) = (   0.1000000   0.0000000   0.0000000), wk =   0.0327869
        k(    6) = (   0.1250000   0.0000000   0.0000000), wk =   0.0327869
        k(    7) = (   0.1500000   0.0000000   0.0000000), wk =   0.0327869
        k(    8) = (   0.1750000   0.0000000   0.0000000), wk =   0.0327869
        k(    9) = (   0.2000000   0.0000000   0.0000000), wk =   0.0327869
        k(   10) = (   0.2250000   0.0000000   0.0000000), wk =   0.0327869
        k(   11) = (   0.2500000   0.0000000   0.0000000), wk =   0.0327869
        k(   12) = (   0.2750000   0.0000000   0.0000000), wk =   0.0327869
        k(   13) = (   0.3000000   0.0000000   0.0000000), wk =   0.0327869
        k(   14) = (   0.3250000   0.0000000   0.0000000), wk =   0.0327869
        k(   15) = (   0.3500000   0.0000000   0.0000000), wk =   0.0327869
        k(   16) = (   0.3750000   0.0000000   0.0000000), wk =   0.0327869
        k(   17) = (   0.4000000   0.0000000   0.0000000), wk =   0.0327869
        k(   18) = (   0.4250000   0.0000000   0.0000000), wk =   0.0327869
        k(   19) = (   0.4500000   0.0000000   0.0000000), wk =   0.0327869
        k(   20) = (   0.4750000   0.0000000   0.0000000), wk =   0.0327869
        k(   21) = (   0.5000000   0.0000000   0.0000000), wk =   0.0327869
        k(   22) = (   0.5000000   0.0250000   0.0000000), wk =   0.0327869
        k(   23) = (   0.5000000   0.0500000   0.0000000), wk =   0.0327869
        k(   24) = (   0.5000000   0.0750000   0.0000000), wk =   0.0327869
        k(   25) = (   0.5000000   0.1000000   0.0000000), wk =   0.0327869
        k(   26) = (   0.5000000   0.1250000   0.0000000), wk =   0.0327869
        k(   27) = (   0.5000000   0.1500000   0.0000000), wk =   0.0327869
        k(   28) = (   0.5000000   0.1750000   0.0000000), wk =   0.0327869
        k(   29) = (   0.5000000   0.2000000   0.0000000), wk =   0.0327869
        k(   30) = (   0.5000000   0.2250000   0.0000000), wk =   0.0327869
        k(   31) = (   0.5000000   0.2500000   0.0000000), wk =   0.0327869
        k(   32) = (   0.5000000   0.2750000   0.0000000), wk =   0.0327869
        k(   33) = (   0.5000000   0.3000000   0.0000000), wk =   0.0327869
        k(   34) = (   0.5000000   0.3250000   0.0000000), wk =   0.0327869
        k(   35) = (   0.5000000   0.3500000   0.0000000), wk =   0.0327869
        k(   36) = (   0.5000000   0.3750000   0.0000000), wk =   0.0327869
        k(   37) = (   0.5000000   0.4000000   0.0000000), wk =   0.0327869
        k(   38) = (   0.5000000   0.4250000   0.0000000), wk =   0.0327869
        k(   39) = (   0.5000000   0.4500000   0.0000000), wk =   0.0327869
        k(   40) = (   0.5000000   0.4750000   0.0000000), wk =   0.0327869
        k(   41) = (   0.5000000   0.5000000   0.0000000), wk =   0.0327869
        k(   42) = (   0.4750000   0.4750000   0.0000000), wk =   0.0327869
        k(   43) = (   0.4500000   0.4500000   0.0000000), wk =   0.0327869
        k(   44) = (   0.4250000   0.4250000   0.0000000), wk =   0.0327869
        k(   45) = (   0.4000000   0.4000000   0.0000000), wk =   0.0327869
        k(   46) = (   0.3750000   0.3750000   0.0000000), wk =   0.0327869
        k(   47) = (   0.3500000   0.3500000   0.0000000), wk =   0.0327869
        k(   48) = (   0.3250000   0.3250000   0.0000000), wk =   0.0327869
        k(   49) = (   0.3000000   0.3000000   0.0000000), wk =   0.0327869
        k(   50) = (   0.2750000   0.2750000   0.0000000), wk =   0.0327869
        k(   51) = (   0.2500000   0.2500000   0.0000000), wk =   0.0327869
        k(   52) = (   0.2250000   0.2250000   0.0000000), wk =   0.0327869
        k(   53) = (   0.2000000   0.2000000   0.0000000), wk =   0.0327869
        k(   54) = (   0.1750000   0.1750000   0.0000000), wk =   0.0327869
        k(   55) = (   0.1500000   0.1500000   0.0000000), wk =   0.0327869
        k(   56) = (   0.1250000   0.1250000   0.0000000), wk =   0.0327869
        k(   57) = (   0.1000000   0.1000000   0.0000000), wk =   0.0327869
        k(   58) = (   0.0750000   0.0750000   0.0000000), wk =   0.0327869
        k(   59) = (   0.0500000   0.0500000   0.0000000), wk =   0.0327869
        k(   60) = (   0.0250000   0.0250000   0.0000000), wk =   0.0327869
        k(   61) = (   0.0000000   0.0000000   0.0000000), wk =   0.0327869

                       cryst. coord.
        k(    1) = (   0.0000000   0.0000000   0.0000000), wk =   0.0327869
        k(    2) = (   0.0250000   0.0000000   0.0000000), wk =   0.0327869
        k(    3) = (   0.0500000   0.0000000   0.0000000), wk =   0.0327869
        k(    4) = (   0.0750000   0.0000000   0.0000000), wk =   0.0327869
        k(    5) = (   0.1000000   0.0000000   0.0000000), wk =   0.0327869
        k(    6) = (   0.1250000   0.0000000   0.0000000), wk =   0.0327869
        k(    7) = (   0.1500000   0.0000000   0.0000000), wk =   0.0327869
        k(    8) = (   0.1750000   0.0000000   0.0000000), wk =   0.0327869
        k(    9) = (   0.2000000   0.0000000   0.0000000), wk =   0.0327869
        k(   10) = (   0.2250000   0.0000000   0.0000000), wk =   0.0327869
        k(   11) = (   0.2500000   0.0000000   0.0000000), wk =   0.0327869
        k(   12) = (   0.2750000   0.0000000   0.0000000), wk =   0.0327869
        k(   13) = (   0.3000000   0.0000000   0.0000000), wk =   0.0327869
        k(   14) = (   0.3250000   0.0000000   0.0000000), wk =   0.0327869
        k(   15) = (   0.3500000   0.0000000   0.0000000), wk =   0.0327869
        k(   16) = (   0.3750000   0.0000000   0.0000000), wk =   0.0327869
        k(   17) = (   0.4000000   0.0000000   0.0000000), wk =   0.0327869
        k(   18) = (   0.4250000   0.0000000   0.0000000), wk =   0.0327869
        k(   19) = (   0.4500000   0.0000000   0.0000000), wk =   0.0327869
        k(   20) = (   0.4750000   0.0000000   0.0000000), wk =   0.0327869
        k(   21) = (   0.5000000   0.0000000   0.0000000), wk =   0.0327869
        k(   22) = (   0.5000000   0.0250000   0.0000000), wk =   0.0327869
        k(   23) = (   0.5000000   0.0500000   0.0000000), wk =   0.0327869
        k(   24) = (   0.5000000   0.0750000   0.0000000), wk =   0.0327869
        k(   25) = (   0.5000000   0.1000000   0.0000000), wk =   0.0327869
        k(   26) = (   0.5000000   0.1250000   0.0000000), wk =   0.0327869
        k(   27) = (   0.5000000   0.1500000   0.0000000), wk =   0.0327869
        k(   28) = (   0.5000000   0.1750000   0.0000000), wk =   0.0327869
        k(   29) = (   0.5000000   0.2000000   0.0000000), wk =   0.0327869
        k(   30) = (   0.5000000   0.2250000   0.0000000), wk =   0.0327869
        k(   31) = (   0.5000000   0.2500000   0.0000000), wk =   0.0327869
        k(   32) = (   0.5000000   0.2750000   0.0000000), wk =   0.0327869
        k(   33) = (   0.5000000   0.3000000   0.0000000), wk =   0.0327869
        k(   34) = (   0.5000000   0.3250000   0.0000000), wk =   0.0327869
        k(   35) = (   0.5000000   0.3500000   0.0000000), wk =   0.0327869
        k(   36) = (   0.5000000   0.3750000   0.0000000), wk =   0.0327869
        k(   37) = (   0.5000000   0.4000000   0.0000000), wk =   0.0327869
        k(   38) = (   0.5000000   0.4250000   0.0000000), wk =   0.0327869
        k(   39) = (   0.5000000   0.4500000   0.0000000), wk =   0.0327869
        k(   40) = (   0.5000000   0.4750000   0.0000000), wk =   0.0327869
        k(   41) = (   0.5000000   0.5000000   0.0000000), wk =   0.0327869
        k(   42) = (   0.4750000   0.4750000   0.0000000), wk =   0.0327869
        k(   43) = (   0.4500000   0.4500000   0.0000000), wk =   0.0327869
        k(   44) = (   0.4250000   0.4250000   0.0000000), wk =   0.0327869
        k(   45) = (   0.4000000   0.4000000   0.0000000), wk =   0.0327869
        k(   46) = (   0.3750000   0.3750000   0.0000000), wk =   0.0327869
        k(   47) = (   0.3500000   0.3500000   0.0000000), wk =   0.0327869
        k(   48) = (   0.3250000   0.3250000   0.0000000), wk =   0.0327869
        k(   49) = (   0.3000000   0.3000000   0.0000000), wk =   0.0327869
        k(   50) = (   0.2750000   0.2750000   0.0000000), wk =   0.0327869
        k(   51) = (   0.2500000   0.2500000   0.0000000), wk =   0.0327869
        k(   52) = (   0.2250000   0.2250000   0.0000000), wk =   0.0327869
        k(   53) = (   0.2000000   0.2000000   0.0000000), wk =   0.0327869
        k(   54) = (   0.1750000   0.1750000   0.0000000), wk =   0.0327869
        k(   55) = (   0.1500000   0.1500000   0.0000000), wk =   0.0327869
        k(   56) = (   0.1250000   0.1250000   0.0000000), wk =   0.0327869
        k(   57) = (   0.1000000   0.1000000   0.0000000), wk =   0.0327869
        k(   58) = (   0.0750000   0.0750000   0.0000000), wk =   0.0327869
        k(   59) = (   0.0500000   0.0500000   0.0000000), wk =   0.0327869
        k(   60) = (   0.0250000   0.0250000   0.0000000), wk =   0.0327869
        k(   61) = (   0.0000000   0.0000000   0.0000000), wk =   0.0327869

     Dense  grid:   423481 G-vectors     FFT dimensions: (  64,  64, 216)

     Smooth grid:   149831 G-vectors     FFT dimensions: (  45,  45, 160)

     Dynamical RAM for                 wfc:       6.43 MB

     Dynamical RAM for     wfc (w. buffer):       6.43 MB

     Dynamical RAM for           str. fact:       4.85 MB

     Dynamical RAM for           local pot:       0.00 MB

     Dynamical RAM for          nlocal pot:      16.28 MB

     Dynamical RAM for                qrad:      15.50 MB

     Dynamical RAM for          rho,v,vnew:       9.91 MB

     Dynamical RAM for           G-vectors:       6.34 MB

     Dynamical RAM for          h,s,v(r/c):       1.48 MB

     Dynamical RAM for          <psi|beta>:       0.31 MB

     Dynamical RAM for                 psi:      12.85 MB

     Dynamical RAM for                hpsi:      12.85 MB

     Dynamical RAM for                spsi:      12.85 MB

     Dynamical RAM for      wfcinit/wfcrot:      18.95 MB

     Dynamical RAM for           addusdens:     909.45 MB

     Estimated static dynamical RAM per process >      74.20 MB

     Estimated max dynamical RAM per process >     983.65 MB

     Estimated total dynamical RAM >       3.84 GB

     The potential is recalculated from file :
     ./La2CuO4/La2CuO4.save/charge-density

     Starting wfcs are  130 randomized atomic wfcs
     Checking if some PAW data can be deallocated... 
       PAW data deallocated on    3 nodes for type:  1

     Band Structure Calculation
     Davidson diagonalization with overlap

     Computing kpt #:     1  of    61
     total cpu time spent up to now is       11.0 secs

     Computing kpt #:     2  of    61
     total cpu time spent up to now is       20.2 secs

     Computing kpt #:     3  of    61
     c_bands:  1 eigenvalues not converged
     total cpu time spent up to now is       32.2 secs

     Computing kpt #:     4  of    61
     total cpu time spent up to now is       43.4 secs

     Computing kpt #:     5  of    61
     total cpu time spent up to now is       54.5 secs

     Computing kpt #:     6  of    61
     c_bands:  1 eigenvalues not converged
     total cpu time spent up to now is       66.3 secs

     Computing kpt #:     7  of    61
     c_bands:  1 eigenvalues not converged
     total cpu time spent up to now is       77.5 secs

     Computing kpt #:     8  of    61
     c_bands:  2 eigenvalues not converged
     total cpu time spent up to now is       88.8 secs

     Computing kpt #:     9  of    61
     c_bands:  2 eigenvalues not converged
     total cpu time spent up to now is       99.5 secs

     Computing kpt #:    10  of    61
     c_bands:  1 eigenvalues not converged
     total cpu time spent up to now is      109.9 secs

     Computing kpt #:    11  of    61
     c_bands:  1 eigenvalues not converged
     total cpu time spent up to now is      119.9 secs

     Computing kpt #:    12  of    61
     c_bands:  1 eigenvalues not converged
     total cpu time spent up to now is      129.9 secs

     Computing kpt #:    13  of    61
     c_bands:  1 eigenvalues not converged
     total cpu time spent up to now is      139.9 secs

     Computing kpt #:    14  of    61
     c_bands:  1 eigenvalues not converged
     total cpu time spent up to now is      150.2 secs

     Computing kpt #:    15  of    61
     c_bands:  1 eigenvalues not converged
     total cpu time spent up to now is      160.3 secs

     Computing kpt #:    16  of    61
     c_bands:  1 eigenvalues not converged
     total cpu time spent up to now is      170.4 secs

     Computing kpt #:    17  of    61
     c_bands:  1 eigenvalues not converged
     total cpu time spent up to now is      180.2 secs

     Computing kpt #:    18  of    61
     c_bands:  2 eigenvalues not converged
     total cpu time spent up to now is      190.5 secs

     Computing kpt #:    19  of    61
     c_bands:  2 eigenvalues not converged
     total cpu time spent up to now is      200.7 secs

     Computing kpt #:    20  of    61
     total cpu time spent up to now is      210.4 secs

     Computing kpt #:    21  of    61
     total cpu time spent up to now is      218.6 secs

     Computing kpt #:    22  of    61
     total cpu time spent up to now is      227.1 secs

     Computing kpt #:    23  of    61
     total cpu time spent up to now is      235.9 secs

     Computing kpt #:    24  of    61
     total cpu time spent up to now is      245.0 secs

     Computing kpt #:    25  of    61
     total cpu time spent up to now is      254.2 secs

     Computing kpt #:    26  of    61
     total cpu time spent up to now is      263.4 secs

     Computing kpt #:    27  of    61
     total cpu time spent up to now is      272.9 secs

     Computing kpt #:    28  of    61
     c_bands:  2 eigenvalues not converged
     total cpu time spent up to now is      282.8 secs

     Computing kpt #:    29  of    61
     total cpu time spent up to now is      292.2 secs

     Computing kpt #:    30  of    61
     total cpu time spent up to now is      301.2 secs

     Computing kpt #:    31  of    61
     total cpu time spent up to now is      309.6 secs

     Computing kpt #:    32  of    61
     total cpu time spent up to now is      318.1 secs

     Computing kpt #:    33  of    61
     total cpu time spent up to now is      326.1 secs

     Computing kpt #:    34  of    61
     total cpu time spent up to now is      333.8 secs

     Computing kpt #:    35  of    61
     total cpu time spent up to now is      341.6 secs

     Computing kpt #:    36  of    61
     total cpu time spent up to now is      349.7 secs

     Computing kpt #:    37  of    61
     total cpu time spent up to now is      357.7 secs

     Computing kpt #:    38  of    61
     total cpu time spent up to now is      366.1 secs

     Computing kpt #:    39  of    61
     total cpu time spent up to now is      374.0 secs

     Computing kpt #:    40  of    61
     total cpu time spent up to now is      382.0 secs

     Computing kpt #:    41  of    61
     total cpu time spent up to now is      389.7 secs

     Computing kpt #:    42  of    61
     total cpu time spent up to now is      397.9 secs

     Computing kpt #:    43  of    61
     total cpu time spent up to now is      406.1 secs

     Computing kpt #:    44  of    61
     total cpu time spent up to now is      414.4 secs

     Computing kpt #:    45  of    61
     total cpu time spent up to now is      422.4 secs

     Computing kpt #:    46  of    61
     total cpu time spent up to now is      430.4 secs

     Computing kpt #:    47  of    61
     total cpu time spent up to now is      439.3 secs

     Computing kpt #:    48  of    61
     c_bands:  2 eigenvalues not converged
     total cpu time spent up to now is      449.5 secs

     Computing kpt #:    49  of    61
     total cpu time spent up to now is      459.4 secs

     Computing kpt #:    50  of    61
     total cpu time spent up to now is      468.1 secs

     Computing kpt #:    51  of    61
     total cpu time spent up to now is      477.5 secs

     Computing kpt #:    52  of    61
     c_bands:  1 eigenvalues not converged
     total cpu time spent up to now is      488.5 secs

     Computing kpt #:    53  of    61
     total cpu time spent up to now is      498.6 secs

     Computing kpt #:    54  of    61
     total cpu time spent up to now is      508.5 secs

     Computing kpt #:    55  of    61
     c_bands:  2 eigenvalues not converged
     total cpu time spent up to now is      519.6 secs

     Computing kpt #:    56  of    61
     c_bands:  1 eigenvalues not converged
     total cpu time spent up to now is      530.9 secs

     Computing kpt #:    57  of    61
     c_bands:  1 eigenvalues not converged
     total cpu time spent up to now is      542.3 secs

     Computing kpt #:    58  of    61
     c_bands:  1 eigenvalues not converged
     total cpu time spent up to now is      554.9 secs

     Computing kpt #:    59  of    61
     total cpu time spent up to now is      565.5 secs

     Computing kpt #:    60  of    61
     total cpu time spent up to now is      576.5 secs

     Computing kpt #:    61  of    61
     total cpu time spent up to now is      587.3 secs

     ethr =  8.77E-12,  avg # of iterations = 92.1

     total cpu time spent up to now is      587.3 secs

     End of band structure calculation

          k = 0.0000 0.0000 0.0000 ( 18751 PWs)   bands (ev):

   -19.9841 -19.9242 -19.8866 -19.8244  -7.4737  -7.3845  -6.0798  -5.7947
    -5.5020  -5.5017  -5.3495  -5.0759  -3.4913  -3.4913  -3.3875  -3.3875
    -3.3083  -3.3083  -3.1966  -3.1966  -2.8341  -2.4865  -2.4753  -1.9278
     6.5723   6.5723   6.6184   6.6184   7.0847   7.6258   7.7525   8.0804
     8.1295   8.3178   8.6588   8.6588   8.8651   8.8651   8.9664   9.0562
     9.0570   9.0831   9.0831   9.2531   9.2531   9.3956   9.3956   9.8777
     9.8777   9.8850   9.8850   9.9004   9.9004  10.0413  10.0430  10.3079
    10.3382  10.7205  12.5956  13.2853  13.9583  14.1417  14.4039  14.7223
    14.7324  14.8778  14.9148  14.9347  14.9347  14.9354  14.9557  14.9557
    14.9956  15.0706  15.0843  15.1155  15.1341  15.1341  15.1650  15.1650
    15.2256  15.2256  15.2828  15.2828  15.3472  15.3472  15.4306  15.4306
    15.4444  15.5231

          k = 0.0250 0.0000 0.0000 ( 18713 PWs)   bands (ev):

   -19.9835 -19.9237 -19.8862 -19.8242  -7.4706  -7.3829  -6.0805  -5.7990
    -5.5059  -5.5054  -5.3548  -5.0798  -3.4903  -3.4886  -3.3877  -3.3866
    -3.3079  -3.3022  -3.2049  -3.1962  -2.8311  -2.4842  -2.4683  -1.9301
     6.5657   6.5741   6.6077   6.6197   7.0811   7.6229   7.7560   8.0768
     8.1234   8.3160   8.6425   8.6492   8.8612   8.8683   8.9444   9.0133
     9.0616   9.0795   9.1179   9.2385   9.2895   9.3962   9.3994   9.8170
     9.8469   9.8800   9.8817   9.8840   9.8992  10.0985  10.0994  10.3150
    10.3384  10.7314  12.6088  13.2929  13.9679  14.1455  14.4065  14.7227
    14.7368  14.8923  14.9155  14.9350  14.9355  14.9355  14.9555  14.9563
    14.9972  15.0711  15.0853  15.1158  15.1345  15.1349  15.1648  15.1678
    15.2234  15.2255  15.2819  15.2835  15.3454  15.3460  15.4295  15.4309
    15.4448  15.5294

          k = 0.0500 0.0000 0.0000 ( 18713 PWs)   bands (ev):

   -19.9818 -19.9221 -19.8853 -19.8234  -7.4613  -7.3784  -6.0825  -5.8125
    -5.5177  -5.5153  -5.3708  -5.0913  -3.4875  -3.4808  -3.3884  -3.3838
    -3.3066  -3.2846  -3.2284  -3.1950  -2.8221  -2.4774  -2.4484  -1.9368
     6.5457   6.5762   6.5796   6.6235   7.0704   7.6135   7.7657   8.0667
     8.1062   8.3107   8.5979   8.6217   8.8497   8.8769   8.9110   8.9258
     9.0686   9.0725   9.1883   9.1988   9.3553   9.3979   9.4112   9.7146
     9.7574   9.8657   9.8722   9.8973   9.9025  10.1827  10.1907  10.3393
    10.3453  10.7654  12.6482  13.3155  13.9962  14.1565  14.4137  14.7236
    14.7501  14.9176  14.9339  14.9355  14.9358  14.9378  14.9544  14.9574
    15.0012  15.0726  15.0876  15.1168  15.1351  15.1366  15.1639  15.1774
    15.2169  15.2251  15.2792  15.2855  15.3402  15.3422  15.4263  15.4322
    15.4460  15.5480

          k = 0.0750 0.0000 0.0000 ( 18707 PWs)   bands (ev):

   -19.9789 -19.9194 -19.8839 -19.8222  -7.4459  -7.3710  -6.0860  -5.8371
    -5.5376  -5.5283  -5.3966  -5.1090  -3.4827  -3.4688  -3.3896  -3.3791
    -3.3045  -3.2640  -3.2568  -3.1931  -2.8075  -2.4660  -2.4188  -1.9476
     6.5123   6.5259   6.5886   6.6298   7.0526   7.5962   7.7792   8.0516
     8.0816   8.3016   8.5327   8.5799   8.8250   8.8308   8.8869   8.8883
     9.0503   9.0826   9.1436   9.2700   9.4008   9.4154   9.4314   9.6104
     9.6615   9.8441   9.8571   9.8993   9.9325  10.2360  10.2717  10.3409
    10.4209  10.8243  12.7128  13.3525  14.0420  14.1742  14.4239  14.7248
    14.7719  14.9209  14.9358  14.9373  14.9414  14.9536  14.9594  14.9954
    15.0070  15.0755  15.0911  15.1184  15.1359  15.1392  15.1626  15.1989
    15.2066  15.2244  15.2748  15.2893  15.3327  15.3363  15.4214  15.4363
    15.4476  15.5792

          k = 0.1000 0.0000 0.0000 ( 18705 PWs)   bands (ev):

   -19.9749 -19.9157 -19.8819 -19.8206  -7.4245  -7.3608  -6.0910  -5.8744
    -5.5655  -5.5406  -5.4315  -5.1315  -3.4762  -3.4536  -3.3918  -3.3727
    -3.3076  -3.3016  -3.2212  -3.1905  -2.7875  -2.4503  -2.3830  -1.9621
     6.4593   6.4654   6.6012   6.6386   7.0281   7.5689   7.7935   8.0336
     8.0542   8.2887   8.4540   8.5287   8.7191   8.8051   8.8752   8.8995
     9.0246   9.0838   9.0870   9.3525   9.4048   9.4557   9.4604   9.5109
     9.5604   9.8198   9.8378   9.9125   9.9725  10.2600  10.3335  10.3437
    10.5320  10.9070  12.8011  13.4030  14.1029  14.1975  14.4357  14.7262
    14.8011  14.9254  14.9363  14.9393  14.9467  14.9533  14.9622  15.0136
    15.0542  15.0847  15.0958  15.1206  15.1366  15.1424  15.1609  15.1934
    15.2234  15.2440  15.2690  15.2949  15.3241  15.3283  15.4148  15.4487
    15.4495  15.6232

          k = 0.1250 0.0000 0.0000 ( 18684 PWs)   bands (ev):

   -19.9699 -19.9111 -19.8794 -19.8186  -7.3972  -7.3482  -6.0974  -5.9251
    -5.6012  -5.5496  -5.4741  -5.1570  -3.4681  -3.4364  -3.3952  -3.3646
    -3.3555  -3.2981  -3.1873  -3.1802  -2.7626  -2.4305  -2.3445  -1.9795
     6.3793   6.4055   6.6174   6.6499   6.9976   7.5303   7.8058   8.0143
     8.0287   8.2718   8.3668   8.4733   8.6110   8.7734   8.8752   8.9082
     8.9916   9.0279   9.0834   9.4098   9.4178   9.4240   9.4535   9.4686
     9.4975   9.8028   9.8156   9.9429  10.0205  10.2742  10.3481  10.3769
    10.6547  11.0071  12.9110  13.4659  14.1761  14.2252  14.4482  14.7278
    14.8366  14.9311  14.9373  14.9421  14.9535  14.9540  14.9659  15.0205
    15.0739  15.1014  15.1147  15.1231  15.1367  15.1459  15.1589  15.1781
    15.2219  15.2623  15.3031  15.3134  15.3155  15.3186  15.4071  15.4509
    15.4883  15.6801

          k = 0.1500 0.0000 0.0000 ( 18694 PWs)   bands (ev):

   -19.9640 -19.9056 -19.8766 -19.8163  -7.3642  -7.3333  -6.1052  -5.9877
    -5.6438  -5.5541  -5.5232  -5.1842  -3.4584  -3.4183  -3.4047  -3.4000
    -3.3550  -3.2942  -3.1837  -3.1367  -2.7334  -2.4070  -2.3057  -1.9988
     6.2889   6.3331   6.6370   6.6636   6.9621   7.4802   7.8136   7.9947
     8.0078   8.2510   8.2743   8.4185   8.5021   8.7365   8.8854   8.9133
     8.9514   8.9817   9.0719   9.3316   9.3416   9.4159   9.4547   9.4660
     9.5406   9.7920   9.8106   9.9902  10.0741  10.2861  10.3550  10.4067
    10.7784  11.1161  13.0399  13.5398  14.2560  14.2575  14.4610  14.7293
    14.8768  14.9376  14.9386  14.9454  14.9557  14.9616  14.9703  15.0274
    15.0801  15.1076  15.1258  15.1359  15.1417  15.1495  15.1566  15.1616
    15.2197  15.2548  15.3077  15.3081  15.3145  15.3652  15.3984  15.4516
    15.5922  15.7498

          k = 0.1750 0.0000 0.0000 ( 18686 PWs)   bands (ev):

   -19.9573 -19.8994 -19.8735 -19.8138  -7.3257  -7.3165  -6.1143  -6.0598
    -5.6923  -5.5771  -5.5548  -5.2124  -3.4528  -3.4474  -3.4066  -3.3999
    -3.3441  -3.2898  -3.1798  -3.0935  -2.7004  -2.3803  -2.2686  -2.0190
     6.1908   6.2498   6.6601   6.6798   6.9228   7.4203   7.8159   7.9755
     7.9922   8.1789   8.2266   8.3677   8.3935   8.6954   8.9041   8.9046
     8.9146   8.9475   9.0533   9.2268   9.2525   9.4200   9.4229   9.4645
     9.5864   9.7681   9.8573  10.0489  10.1312  10.2978  10.3654  10.4273
    10.8988  11.2266  13.1848  13.6233  14.2886  14.3428  14.4740  14.7304
    14.9202  14.9405  14.9449  14.9493  14.9583  14.9710  14.9755  15.0342
    15.0855  15.1140  15.1285  15.1345  15.1448  15.1529  15.1543  15.1630
    15.2169  15.2470  15.2959  15.3024  15.3297  15.3892  15.3925  15.4511
    15.7537  15.8350

          k = 0.2000 0.0000 0.0000 ( 18696 PWs)   bands (ev):

   -19.9499 -19.8926 -19.8703 -19.8113  -7.2982  -7.2821  -6.1384  -6.1247
    -5.7454  -5.6345  -5.5523  -5.2410  -3.4981  -3.4352  -3.4149  -3.3817
    -3.3321  -3.2853  -3.1758  -3.0532  -2.6645  -2.3512  -2.2345  -2.0387
     6.0878   6.1576   6.6865   6.6984   6.8814   7.3531   7.8130   7.9567
     7.9809   8.0821   8.1985   8.2860   8.3233   8.6514   8.8523   8.9128
     8.9239   8.9298   9.0292   9.1127   9.1808   9.3717   9.4285   9.4309
     9.6309   9.7450   9.9339  10.1133  10.1897  10.3101  10.3806  10.4420
    11.0134  11.3331  13.3418  13.7146  14.3221  14.4267  14.4873  14.7309
    14.9429  14.9527  14.9537  14.9614  14.9647  14.9815  14.9815  15.0409
    15.0909  15.1203  15.1285  15.1309  15.1326  15.1520  15.1557  15.1811
    15.2134  15.2396  15.2836  15.2983  15.3498  15.3796  15.4170  15.4490
    15.9132  15.9247

          k = 0.2250 0.0000 0.0000 ( 18702 PWs)   bands (ev):

   -19.9419 -19.8852 -19.8670 -19.8087  -7.2787  -7.2336  -6.2208  -6.1361
    -5.8014  -5.6940  -5.5479  -5.2699  -3.5390  -3.4252  -3.4221  -3.3636
    -3.3190  -3.2808  -3.1718  -3.0182  -2.6262  -2.3205  -2.2044  -2.0567
     5.9824   6.0589   6.7161   6.7194   6.8395   7.2817   7.8062   7.9385
     7.9724   7.9855   8.1664   8.1803   8.2868   8.6056   8.7956   8.9017
     8.9086   8.9612   9.0012   9.0091   9.1171   9.3150   9.3744   9.4396
     9.6701   9.7232  10.0246  10.1788  10.2478  10.3233  10.4019  10.4526
    11.1211  11.4323  13.5069  13.8120  14.3555  14.4989  14.5064  14.7307
    14.9460  14.9587  14.9610  14.9650  14.9881  14.9929  15.0078  15.0473
    15.0963  15.1133  15.1258  15.1308  15.1328  15.1496  15.1576  15.1954
    15.2094  15.2330  15.2711  15.2953  15.3696  15.3760  15.4454  15.4498
    15.9386  16.0260

          k = 0.2500 0.0000 0.0000 ( 18702 PWs)   bands (ev):

   -19.9336 -19.8775 -19.8638 -19.8062  -7.2582  -7.1807  -6.3046  -6.1482
    -5.8593  -5.7540  -5.5422  -5.2989  -3.5747  -3.4374  -3.4082  -3.3456
    -3.3053  -3.2765  -3.1680  -2.9903  -2.5862  -2.2890  -2.1790  -2.0717
     5.8774   5.9566   6.7428   6.7490   6.7986   7.2085   7.7972   7.8900
     7.9211   7.9652   8.0770   8.1299   8.2590   8.5593   8.7362   8.8440
     8.9024   8.9524   8.9709   8.9971   9.0617   9.2540   9.3124   9.4490
     9.7005   9.7030  10.1199  10.2429  10.3040  10.3373  10.4300  10.4604
    11.2212  11.5218  13.6751  13.9133  14.3885  14.5138  14.5728  14.7295
    14.9499  14.9641  14.9689  14.9696  14.9955  15.0052  15.0464  15.0537
    15.0998  15.1017  15.1300  15.1305  15.1337  15.1472  15.1586  15.2044
    15.2051  15.2277  15.2589  15.2928  15.3594  15.4091  15.4403  15.4956
    15.9727  16.1327

          k = 0.2750 0.0000 0.0000 ( 18710 PWs)   bands (ev):

   -19.9250 -19.8695 -19.8608 -19.8039  -7.2371  -7.1239  -6.3878  -6.1604
    -5.9180  -5.8134  -5.5361  -5.3278  -3.6046  -3.4514  -3.3939  -3.3273
    -3.2911  -3.2725  -3.1646  -2.9711  -2.5450  -2.2576  -2.1587  -2.0827
     5.7751   5.8537   6.7603   6.7687   6.7850   7.1356   7.7879   7.7965
     7.9046   7.9582   7.9766   8.0895   8.2396   8.5136   8.6756   8.7483
     8.8949   8.9396   8.9438   9.0148   9.0360   9.1915   9.2486   9.4591
     9.6844   9.7197  10.2148  10.3039  10.3520  10.3573  10.4648  10.4661
    11.3134  11.6006  13.8412  14.0158  14.4206  14.5273  14.6287  14.7273
    14.9543  14.9699  14.9731  14.9784  15.0034  15.0177  15.0600  15.0762
    15.0883  15.1065  15.1325  15.1333  15.1342  15.1449  15.1581  15.2010
    15.2078  15.2245  15.2475  15.2906  15.3491  15.4338  15.4499  15.5548
    16.0166  16.2384

          k = 0.3000 0.0000 0.0000 ( 18680 PWs)   bands (ev):

   -19.9164 -19.8614 -19.8581 -19.8019  -7.2154  -7.0640  -6.4687  -6.1724
    -5.9770  -5.8711  -5.5301  -5.3561  -3.6282  -3.4672  -3.3793  -3.3084
    -3.2766  -3.2692  -3.1619  -2.9613  -2.5033  -2.2270  -2.1437  -2.0895
     5.6778   5.7532   6.7257   6.7969   6.8240   7.0647   7.7059   7.7795
     7.8796   7.8896   7.9506   8.0467   8.2268   8.4699   8.6156   8.6501
     8.8865   8.9088   8.9471   8.9766   9.0744   9.1295   9.1892   9.4696
     9.6674   9.7269  10.3061  10.3605  10.3671  10.4067  10.4702  10.5050
    11.3979  11.6679  13.9998  14.1168  14.4517  14.5408  14.6722  14.7240
    14.9593  14.9762  14.9778  14.9874  15.0116  15.0302  15.0662  15.0793
    15.0922  15.1107  15.1314  15.1329  15.1425  15.1455  15.1560  15.1976
    15.2065  15.2235  15.2374  15.2890  15.3388  15.4266  15.4992  15.6239
    16.0712  16.3343

          k = 0.3250 0.0000 0.0000 ( 18678 PWs)   bands (ev):

   -19.9078 -19.8559 -19.8534 -19.8004  -7.1931  -7.0018  -6.5454  -6.1835
    -6.0361  -5.9260  -5.5245  -5.3833  -3.6455  -3.4845  -3.3648  -3.2885
    -3.2667  -3.2622  -3.1599  -2.9606  -2.4617  -2.1981  -2.1342  -2.0920
     5.5877   5.6575   6.6960   6.8277   6.8659   6.9970   7.6187   7.7732
     7.7862   7.8764   7.9419   8.0034   8.2185   8.4293   8.5576   8.5582
     8.8776   8.8797   8.9471   8.9527   9.0699   9.0892   9.1588   9.4805
     9.6518   9.7225  10.3822  10.3918  10.4120  10.4514  10.4729  10.5483
    11.4747  11.7234  14.1461  14.2133  14.4816  14.5540  14.7041  14.7196
    14.9650  14.9826  14.9834  14.9965  15.0201  15.0419  15.0723  15.0730
    15.0970  15.1137  15.1277  15.1313  15.1400  15.1522  15.1601  15.1952
    15.2014  15.2246  15.2288  15.2889  15.3284  15.4186  15.5571  15.6980
    16.1369  16.4095

          k = 0.3500 0.0000 0.0000 ( 18686 PWs)   bands (ev):

   -19.8995 -19.8543 -19.8455 -19.7995  -7.1700  -6.9395  -6.6156  -6.1929
    -6.0956  -5.9772  -5.5196  -5.4086  -3.6566  -3.5031  -3.3506  -3.2674
    -3.2651  -3.2480  -3.1589  -2.9683  -2.4205  -2.1714  -2.1301  -2.0910
     5.5066   5.5691   6.6721   6.8611   6.9108   6.9335   7.5353   7.6967
     7.7692   7.8655   7.9319   7.9615   8.2130   8.3929   8.4754   8.5032
     8.8535   8.8689   8.9260   8.9574   9.0140   9.0502   9.1892   9.4918
     9.6373   9.7079  10.3970  10.4579  10.4702  10.4745  10.4909  10.5919
    11.5441  11.7673  14.2759  14.3026  14.5098  14.5666  14.7139  14.7260
    14.9712  14.9892  14.9905  15.0053  15.0283  15.0515  15.0708  15.0786
    15.0973  15.1148  15.1224  15.1282  15.1373  15.1463  15.1703  15.1936
    15.1940  15.2218  15.2276  15.2917  15.3183  15.4100  15.6228  15.7719
    16.2129  16.4552

          k = 0.3750 0.0000 0.0000 ( 18722 PWs)   bands (ev):

   -19.8915 -19.8534 -19.8380 -19.7991  -7.1459  -6.8824  -6.6737  -6.2001
    -6.1557  -6.0241  -5.5155  -5.4315  -3.6619  -3.5227  -3.3369  -3.2647
    -3.2449  -3.2343  -3.1590  -2.9831  -2.3804  -2.1475  -2.1314  -2.0878
     5.4361   5.4900   6.6545   6.8749   6.8972   6.9585   7.4561   7.6112
     7.7677   7.8574   7.9208   7.9224   8.2090   8.3616   8.4035   8.4536
     8.8312   8.8608   8.9128   8.9597   8.9630   9.0030   9.2353   9.5032
     9.6236   9.6845  10.4110  10.4751  10.4976  10.5246  10.5398  10.6329
    11.6063  11.7998  14.3828  14.3867  14.5358  14.5783  14.7067  14.7392
    14.9776  14.9956  14.9994  15.0140  15.0360  15.0566  15.0749  15.0850
    15.0958  15.1137  15.1161  15.1242  15.1343  15.1388  15.1732  15.1840
    15.1939  15.2163  15.2319  15.2980  15.3082  15.4011  15.6940  15.8413
    16.2974  16.4712

          k = 0.4000 0.0000 0.0000 ( 18706 PWs)   bands (ev):

   -19.8840 -19.8532 -19.8309 -19.7995  -7.1202  -6.8496  -6.7007  -6.2170
    -6.2043  -6.0660  -5.5120  -5.4512  -3.6618  -3.5429  -3.3240  -3.2655
    -3.2213  -3.2209  -3.1604  -3.0034  -2.3417  -2.1379  -2.1268  -2.0836
     5.3777   5.4219   6.6439   6.8220   6.9362   7.0090   7.3815   7.5298
     7.7686   7.8524   7.8874   7.9089   8.2060   8.3364   8.3432   8.4100
     8.8138   8.8543   8.9067   8.9178   8.9590   8.9606   9.2847   9.5149
     9.6106   9.6539  10.4239  10.4746  10.5310  10.5523  10.5995  10.6689
    11.6613  11.8214  14.4526  14.4785  14.5588  14.5888  14.6977  14.7444
    14.9845  15.0015  15.0107  15.0225  15.0429  15.0592  15.0833  15.0918
    15.0935  15.1099  15.1102  15.1201  15.1306  15.1311  15.1692  15.1733
    15.1946  15.2122  15.2372  15.2985  15.3072  15.3920  15.7677  15.9026
    16.3872  16.4654

          k = 0.4250 0.0000 0.0000 ( 18722 PWs)   bands (ev):

   -19.8772 -19.8539 -19.8243 -19.8006  -7.0924  -6.8659  -6.6723  -6.2800
    -6.2047  -6.1026  -5.5090  -5.4676  -3.6569  -3.5632  -3.3120  -3.2678
    -3.2092  -3.1954  -3.1631  -3.0278  -2.3050  -2.1494  -2.1096  -2.0797
     5.3325   5.3663   6.6405   6.7751   6.9783   7.0622   7.3115   7.4525
     7.7718   7.8506   7.8571   7.8966   8.2041   8.2949   8.3180   8.3731
     8.8021   8.8501   8.8792   8.9068   8.9249   8.9550   9.3351   9.5266
     9.5981   9.6175  10.4355  10.4730  10.5577  10.5735  10.6484  10.6975
    11.7092  11.8325  14.5114  14.5523  14.5779  14.5975  14.6863  14.7423
    14.9913  15.0063  15.0240  15.0304  15.0479  15.0624  15.0906  15.0928
    15.0993  15.1039  15.1044  15.1168  15.1219  15.1276  15.1605  15.1619
    15.1959  15.2088  15.2431  15.2891  15.3182  15.3825  15.8397  15.9523
    16.4478  16.4781

          k = 0.4500 0.0000 0.0000 ( 18714 PWs)   bands (ev):

   -19.8711 -19.8555 -19.8184 -19.8025  -7.0619  -6.9064  -6.6138  -6.3448
    -6.2009  -6.1336  -5.5059  -5.4805  -3.6479  -3.5832  -3.3011  -3.2715
    -3.1981  -3.1686  -3.1672  -3.0547  -2.2707  -2.1657  -2.0960  -2.0773
     5.3012   5.3240   6.6445   6.7348   7.0236   7.1177   7.2468   7.3791
     7.7772   7.8320   7.8520   7.8845   8.2041   8.2585   8.3071   8.3437
     8.7967   8.8477   8.8492   8.8965   8.9115   8.9482   9.3858   9.5384
     9.5766   9.5859  10.4455  10.4703  10.5776  10.5881  10.6858  10.7172
    11.7499  11.8336  14.5597  14.5922  14.6039  14.6110  14.6718  14.7329
    14.9980  15.0093  15.0377  15.0388  15.0509  15.0669  15.0870  15.0948
    15.1007  15.1028  15.1075  15.1138  15.1150  15.1240  15.1492  15.1501
    15.1976  15.2061  15.2496  15.2803  15.3296  15.3728  15.9049  15.9867
    16.4272  16.4493

          k = 0.4750 0.0000 0.0000 ( 18724 PWs)   bands (ev):

   -19.8659 -19.8580 -19.8132 -19.8052  -7.0281  -6.9497  -6.5474  -6.4113
    -6.1922  -6.1588  -5.5022  -5.4902  -3.6353  -3.6023  -3.2916  -3.2767
    -3.1883  -3.1728  -3.1406  -3.0831  -2.2392  -2.1863  -2.0861  -2.0771
     5.2846   5.2961   6.6560   6.7013   7.0723   7.1651   7.1977   7.3096
     7.7853   7.8120   7.8566   7.8734   8.2077   8.2328   8.3039   8.3223
     8.7983   8.8237   8.8525   8.8754   8.9195   8.9392   9.4360   9.5321
     9.5502   9.5739  10.4540  10.4663  10.5906  10.5959  10.7113  10.7266
    11.7831  11.8255  14.5985  14.6019  14.6072  14.6532  14.6562  14.7159
    15.0036  15.0098  15.0439  15.0511  15.0544  15.0722  15.0827  15.0831
    15.0998  15.1069  15.1133  15.1153  15.1168  15.1203  15.1370  15.1384
    15.1994  15.2037  15.2565  15.2718  15.3410  15.3626  15.9575  16.0009
    16.4114  16.4201

          k = 0.5000 0.0000 0.0000 ( 18774 PWs)   bands (ev):

   -19.8616 -19.8614 -19.8089 -19.8087  -6.9908  -6.9906  -6.4793  -6.4792
    -6.1783  -6.1782  -5.4973  -5.4972  -3.6199  -3.6199  -3.2835  -3.2833
    -3.1800  -3.1798  -3.1119  -3.1119  -2.2109  -2.2109  -2.0800  -2.0799
     5.2826   5.2831   6.6748   6.6752   7.1240   7.1242   7.2445   7.2445
     7.7967   7.7967   7.8638   7.8640   8.2165   8.2166   8.3088   8.3091
     8.8071   8.8073   8.8608   8.8610   8.9293   8.9293   9.4849   9.4850
     9.5617   9.5623  10.4606  10.4612  10.5964  10.5970  10.7245  10.7252
    11.8082  11.8087  14.6066  14.6068  14.6290  14.6292  14.6905  14.6907
    15.0076  15.0078  15.0484  15.0486  15.0693  15.0694  15.0775  15.0776
    15.1018  15.1020  15.1170  15.1172  15.1247  15.1247  15.1271  15.1272
    15.2014  15.2015  15.2638  15.2640  15.3519  15.3520  15.9910  15.9912
    16.4073  16.4074

          k = 0.5000 0.0250 0.0000 ( 18722 PWs)   bands (ev):

   -19.8612 -19.8610 -19.8086 -19.8084  -6.9882  -6.9880  -6.4786  -6.4785
    -6.1759  -6.1757  -5.4982  -5.4982  -3.6212  -3.6211  -3.2914  -3.2912
    -3.1852  -3.1850  -3.1079  -3.1079  -2.2134  -2.2134  -2.0830  -2.0829
     5.2787   5.2792   6.6829   6.6832   7.1006   7.1007   7.2275   7.2276
     7.8211   7.8211   7.8592   7.8594   8.2210   8.2211   8.3083   8.3085
     8.7982   8.7984   8.8598   8.8600   8.9418   8.9419   9.4619   9.4621
     9.5944   9.5950  10.4743  10.4749  10.6009  10.6015  10.7244  10.7250
    11.8193  11.8199  14.6073  14.6075  14.6302  14.6304  14.6914  14.6915
    15.0064  15.0066  15.0476  15.0477  15.0674  15.0675  15.0699  15.0701
    15.1003  15.1004  15.1145  15.1146  15.1289  15.1291  15.1301  15.1301
    15.2027  15.2029  15.2632  15.2634  15.3525  15.3526  16.0046  16.0048
    16.4011  16.4012

          k = 0.5000 0.0500 0.0000 ( 18706 PWs)   bands (ev):

   -19.8600 -19.8598 -19.8075 -19.8073  -6.9804  -6.9802  -6.4766  -6.4765
    -6.1685  -6.1683  -5.5012  -5.5011  -3.6251  -3.6250  -3.3122  -3.3120
    -3.2008  -3.2005  -3.0984  -3.0984  -2.2208  -2.2208  -2.0919  -2.0919
     5.2670   5.2674   6.7068   6.7071   7.0386   7.0388   7.1800   7.1800
     7.8459   7.8461   7.8829   7.8829   8.2341   8.2342   8.3064   8.3067
     8.7811   8.7812   8.8569   8.8571   8.9729   8.9729   9.4290   9.4292
     9.6562   9.6568  10.5067  10.5071  10.6194  10.6198  10.7241  10.7247
    11.8532  11.8538  14.6094  14.6096  14.6334  14.6336  14.6938  14.6939
    15.0022  15.0024  15.0449  15.0450  15.0545  15.0547  15.0603  15.0605
    15.0934  15.0934  15.1108  15.1109  15.1320  15.1321  15.1407  15.1408
    15.2068  15.2069  15.2613  15.2615  15.3542  15.3543  16.0444  16.0446
    16.3831  16.3832

          k = 0.5000 0.0750 0.0000 ( 18702 PWs)   bands (ev):

   -19.8580 -19.8578 -19.8058 -19.8055  -6.9675  -6.9673  -6.4735  -6.4733
    -6.1562  -6.1561  -5.5061  -5.5060  -3.6317  -3.6317  -3.3404  -3.3402
    -3.2259  -3.2257  -3.0884  -3.0884  -2.2328  -2.2328  -2.1069  -2.1068
     5.2471   5.2476   6.7454   6.7457   6.9542   6.9543   7.1078   7.1079
     7.8244   7.8246   7.9609   7.9610   8.2539   8.2541   8.3030   8.3033
     8.7705   8.7707   8.8527   8.8528   9.0152   9.0152   9.4036   9.4038
     9.7287   9.7292  10.5349  10.5349  10.6657  10.6658  10.7237  10.7244
    11.9112  11.9118  14.6127  14.6129  14.6387  14.6389  14.6977  14.6978
    14.9952  14.9953  15.0375  15.0377  15.0393  15.0394  15.0483  15.0484
    15.0813  15.0813  15.1100  15.1101  15.1351  15.1352  15.1499  15.1501
    15.2143  15.2144  15.2584  15.2586  15.3568  15.3569  16.1083  16.1085
    16.3551  16.3552

          k = 0.5000 0.1000 0.0000 ( 18712 PWs)   bands (ev):

   -19.8554 -19.8552 -19.8034 -19.8032  -6.9496  -6.9494  -6.4693  -6.4691
    -6.1393  -6.1391  -5.5131  -5.5131  -3.6415  -3.6414  -3.3713  -3.3712
    -3.2597  -3.2595  -3.0814  -3.0814  -2.2490  -2.2490  -2.1278  -2.1277
     5.2189   5.2193   6.7969   6.7972   6.8598   6.8598   7.0173   7.0174
     7.7959   7.7961   8.0387   8.0388   8.2769   8.2770   8.2980   8.2983
     8.7783   8.7785   8.8478   8.8479   9.0667   9.0668   9.3883   9.3885
     9.8079   9.8084  10.5483  10.5485  10.7235  10.7242  10.7380  10.7382
    11.9949  11.9954  14.6173  14.6174  14.6458  14.6460  14.7029  14.7031
    14.9850  14.9852  15.0208  15.0210  15.0244  15.0245  15.0396  15.0396
    15.0657  15.0657  15.1125  15.1126  15.1384  15.1385  15.1553  15.1555
    15.2250  15.2250  15.2549  15.2550  15.3602  15.3603  16.1933  16.1935
    16.3201  16.3202

          k = 0.5000 0.1250 0.0000 ( 18702 PWs)   bands (ev):

   -19.8521 -19.8519 -19.8004 -19.8002  -6.9270  -6.9268  -6.4644  -6.4642
    -6.1178  -6.1177  -5.5224  -5.5224  -3.6548  -3.6547  -3.4019  -3.4017
    -3.3006  -3.3004  -3.0795  -3.0795  -2.2687  -2.2687  -2.1546  -2.1546
     5.1818   5.1822   6.7620   6.7620   6.8589   6.8592   6.9160   6.9161
     7.7615   7.7617   8.1067   8.1069   8.2915   8.2917   8.2980   8.2982
     8.8121   8.8122   8.8432   8.8433   9.1274   9.1274   9.3830   9.3831
     9.8918   9.8923  10.5541  10.5545  10.7238  10.7244  10.8192  10.8194
    12.1047  12.1053  14.6229  14.6230  14.6544  14.6546  14.7095  14.7097
    14.9720  14.9721  15.0034  15.0035  15.0055  15.0056  15.0337  15.0338
    15.0477  15.0477  15.1173  15.1173  15.1424  15.1425  15.1570  15.1572
    15.2374  15.2375  15.2511  15.2513  15.3639  15.3641  16.2678  16.2678
    16.3103  16.3104

          k = 0.5000 0.1500 0.0000 ( 18718 PWs)   bands (ev):

   -19.8482 -19.8480 -19.7969 -19.7967  -6.9000  -6.8998  -6.4590  -6.4589
    -6.0921  -6.0920  -5.5340  -5.5340  -3.6722  -3.6721  -3.4295  -3.4293
    -3.3472  -3.3470  -3.0835  -3.0835  -2.2913  -2.2913  -2.1873  -2.1873
     5.1354   5.1359   6.6637   6.6638   6.8118   6.8118   6.9285   6.9289
     7.7225   7.7227   8.1614   8.1616   8.2838   8.2840   8.3151   8.3152
     8.8396   8.8397   8.8719   8.8719   9.1976   9.1977   9.3870   9.3871
     9.9788   9.9793  10.5570  10.5574  10.7247  10.7253  10.8972  10.8975
    12.2391  12.2397  14.6294  14.6296  14.6643  14.6645  14.7173  14.7174
    14.9562  14.9563  14.9813  14.9814  14.9915  14.9916  15.0278  15.0279
    15.0284  15.0285  15.1235  15.1235  15.1470  15.1471  15.1560  15.1562
    15.2476  15.2477  15.2499  15.2499  15.3677  15.3679  16.2316  16.2317
    16.4261  16.4263

          k = 0.5000 0.1750 0.0000 ( 18734 PWs)   bands (ev):

   -19.8438 -19.8436 -19.7930 -19.7928  -6.8687  -6.8685  -6.4536  -6.4534
    -6.0625  -6.0624  -5.5479  -5.5479  -3.6942  -3.6941  -3.4523  -3.4521
    -3.3973  -3.3971  -3.0934  -3.0934  -2.3159  -2.3159  -2.2259  -2.2259
     5.0795   5.0799   6.5661   6.5663   6.7121   6.7121   7.0026   7.0029
     7.6802   7.6804   8.2013   8.2015   8.2758   8.2761   8.3311   8.3312
     8.8377   8.8377   8.9500   8.9501   9.2782   9.2783   9.3993   9.3994
    10.0674  10.0680  10.5585  10.5589  10.7266  10.7272  10.9668  10.9670
    12.3944  12.3951  14.6367  14.6368  14.6750  14.6752  14.7260  14.7261
    14.9387  14.9388  14.9598  14.9600  14.9788  14.9789  15.0088  15.0088
    15.0218  15.0219  15.1306  15.1306  15.1523  15.1523  15.1531  15.1533
    15.2447  15.2448  15.2616  15.2616  15.3711  15.3713  16.1891  16.1892
    16.4692  16.4693

          k = 0.5000 0.2000 0.0000 ( 18714 PWs)   bands (ev):

   -19.8391 -19.8389 -19.7887 -19.7885  -6.8338  -6.8336  -6.4484  -6.4483
    -6.0295  -6.0294  -5.5641  -5.5640  -3.7214  -3.7214  -3.4689  -3.4688
    -3.4490  -3.4489  -3.1090  -3.1090  -2.3415  -2.3415  -2.2701  -2.2701
     5.0142   5.0147   6.4706   6.4710   6.6221   6.6223   7.0774   7.0778
     7.6358   7.6360   8.2260   8.2262   8.2689   8.2691   8.3511   8.3512
     8.8374   8.8374   9.0366   9.0367   9.3691   9.3693   9.4189   9.4189
    10.1564  10.1570  10.5593  10.5597  10.7297  10.7303  11.0265  11.0268
    12.5652  12.5658  14.6444  14.6445  14.6860  14.6862  14.7355  14.7357
    14.9207  14.9207  14.9397  14.9399  14.9671  14.9672  14.9893  14.9893
    15.0159  15.0160  15.1384  15.1384  15.1491  15.1493  15.1583  15.1583
    15.2431  15.2432  15.2721  15.2721  15.3738  15.3740  16.1484  16.1485
    16.4073  16.4074

          k = 0.5000 0.2250 0.0000 ( 18726 PWs)   bands (ev):

   -19.8341 -19.8339 -19.7842 -19.7840  -6.7957  -6.7955  -6.4439  -6.4437
    -5.9934  -5.9933  -5.5823  -5.5822  -3.7543  -3.7542  -3.5005  -3.5004
    -3.4782  -3.4781  -3.1295  -3.1295  -2.3674  -2.3674  -2.3198  -2.3198
     4.9403   4.9407   6.3799   6.3803   6.5440   6.5442   7.1496   7.1500
     7.5906   7.5908   8.2383   8.2385   8.2646   8.2648   8.3759   8.3760
     8.8383   8.8383   9.1243   9.1243   9.4445   9.4446   9.4690   9.4692
    10.2443  10.2449  10.5596  10.5600  10.7342  10.7349  11.0770  11.0772
    12.7451  12.7457  14.6523  14.6524  14.6968  14.6970  14.7456  14.7457
    14.9031  14.9031  14.9212  14.9214  14.9564  14.9565  14.9702  14.9702
    15.0101  15.0102  15.1441  15.1443  15.1459  15.1460  15.1649  15.1649
    15.2432  15.2433  15.2814  15.2814  15.3756  15.3758  16.1117  16.1118
    16.3386  16.3387

          k = 0.5000 0.2500 0.0000 ( 18738 PWs)   bands (ev):

   -19.8289 -19.8287 -19.7796 -19.7794  -6.7549  -6.7547  -6.4402  -6.4401
    -5.9550  -5.9549  -5.6022  -5.6021  -3.7925  -3.7924  -3.5502  -3.5500
    -3.4796  -3.4795  -3.1539  -3.1539  -2.3927  -2.3927  -2.3746  -2.3746
     4.8594   4.8598   6.2969   6.2973   6.4771   6.4774   7.2157   7.2160
     7.5458   7.5460   8.2441   8.2443   8.2648   8.2650   8.4018   8.4018
     8.8393   8.8394   9.2091   9.2092   9.4753   9.4754   9.5747   9.5750
    10.3300  10.3306  10.5597  10.5601  10.7403  10.7409  11.1194  11.1197
    12.9285  12.9291  14.6601  14.6602  14.7066  14.7068  14.7560  14.7561
    14.8873  14.8873  14.9044  14.9046  14.9464  14.9466  14.9516  14.9517
    15.0047  15.0048  15.1385  15.1387  15.1525  15.1525  15.1726  15.1728
    15.2455  15.2455  15.2896  15.2896  15.3765  15.3766  16.0803  16.0804
    16.2635  16.2636

          k = 0.5000 0.2750 0.0000 ( 18744 PWs)   bands (ev):

   -19.8238 -19.8236 -19.7750 -19.7748  -6.7123  -6.7121  -6.4377  -6.4375
    -5.9150  -5.9149  -5.6235  -5.6234  -3.8352  -3.8351  -3.5971  -3.5970
    -3.4726  -3.4725  -3.1812  -3.1811  -2.4341  -2.4340  -2.4166  -2.4166
     4.7737   4.7740   6.2238   6.2243   6.4203   6.4206   7.2726   7.2729
     7.5028   7.5030   8.2479   8.2481   8.2711   8.2713   8.4251   8.4251
     8.8392   8.8393   9.2899   9.2899   9.5101   9.5102   9.6821   9.6824
    10.4120  10.4126  10.5596  10.5600  10.7479  10.7485  11.1551  11.1554
    13.1100  13.1106  14.6674  14.6675  14.7149  14.7151  14.7663  14.7665
    14.8742  14.8743  14.8892  14.8894  14.9332  14.9332  14.9382  14.9383
    14.9997  14.9998  15.1326  15.1327  15.1569  15.1570  15.1821  15.1823
    15.2499  15.2499  15.2971  15.2971  15.3765  15.3767  16.0554  16.0555
    16.1836  16.1838

          k = 0.5000 0.3000 0.0000 ( 18736 PWs)   bands (ev):

   -19.8188 -19.8186 -19.7705 -19.7702  -6.6685  -6.6683  -6.4365  -6.4363
    -5.8742  -5.8741  -5.6457  -5.6456  -3.8808  -3.8808  -3.6409  -3.6408
    -3.4573  -3.4571  -3.2099  -3.2098  -2.4977  -2.4977  -2.4386  -2.4386
     4.6861   4.6865   6.1614   6.1619   6.3724   6.3727   7.3173   7.3177
     7.4638   7.4641   8.2521   8.2523   8.2849   8.2851   8.4437   8.4437
     8.8366   8.8367   9.3663   9.3664   9.5477   9.5478   9.7867   9.7870
    10.4893  10.4899  10.5596  10.5600  10.7570  10.7576  11.1851  11.1853
    13.2850  13.2856  14.6740  14.6741  14.7210  14.7212  14.7763  14.7764
    14.8648  14.8648  14.8756  14.8757  14.9158  14.9158  14.9308  14.9309
    14.9953  14.9953  15.1266  15.1267  15.1593  15.1594  15.1934  15.1936
    15.2560  15.2560  15.3044  15.3044  15.3759  15.3761  16.0377  16.0378
    16.1018  16.1019

          k = 0.5000 0.3250 0.0000 ( 18752 PWs)   bands (ev):

   -19.8140 -19.8138 -19.7662 -19.7659  -6.6247  -6.6244  -6.4364  -6.4362
    -5.8336  -5.8335  -5.6683  -5.6682  -3.9272  -3.9272  -3.6814  -3.6814
    -3.4339  -3.4337  -3.2386  -3.2385  -2.5650  -2.5649  -2.4583  -2.4582
     4.6000   4.6004   6.1096   6.1101   6.3323   6.3327   7.3451   7.3456
     7.4336   7.4340   8.2577   8.2579   8.3067   8.3069   8.4566   8.4567
     8.8302   8.8302   9.4382   9.4382   9.5866   9.5866   9.8846   9.8849
    10.5600  10.5604  10.5604  10.5610  10.7675  10.7681  11.2102  11.2105
    13.4496  13.4502  14.6798  14.6798  14.7249  14.7251  14.7855  14.7856
    14.8591  14.8591  14.8633  14.8635  14.8989  14.8989  14.9248  14.9248
    14.9912  14.9912  15.1206  15.1208  15.1602  15.1603  15.2058  15.2060
    15.2631  15.2631  15.3115  15.3116  15.3750  15.3752  16.0208  16.0209
    16.0277  16.0277

          k = 0.5000 0.3500 0.0000 ( 18748 PWs)   bands (ev):

   -19.8096 -19.8094 -19.7622 -19.7620  -6.5818  -6.5816  -6.4373  -6.4371
    -5.7943  -5.7942  -5.6907  -5.6906  -3.9724  -3.9724  -3.7187  -3.7186
    -3.4032  -3.4031  -3.2657  -3.2656  -2.6350  -2.6350  -2.4753  -2.4752
     4.5184   4.5188   6.0674   6.0680   6.2993   6.2996   7.3471   7.3474
     7.4229   7.4232   8.2652   8.2654   8.3359   8.3361   8.4638   8.4639
     8.8190   8.8191   9.5048   9.5048   9.6249   9.6250   9.9726   9.9729
    10.5612  10.5616  10.6241  10.6246  10.7792  10.7798  11.2311  11.2313
    13.6004  13.6010  14.6845  14.6845  14.7269  14.7270  14.7935  14.7936
    14.8525  14.8527  14.8569  14.8569  14.8828  14.8829  14.9201  14.9202
    14.9875  14.9876  15.1151  15.1153  15.1602  15.1603  15.2188  15.2190
    15.2702  15.2702  15.3191  15.3192  15.3739  15.3741  15.9432  15.9434
    16.0252  16.0253

          k = 0.5000 0.3750 0.0000 ( 18764 PWs)   bands (ev):

   -19.8056 -19.8054 -19.7586 -19.7584  -6.5414  -6.5412  -6.4389  -6.4386
    -5.7576  -5.7575  -5.7123  -5.7122  -4.0143  -4.0143  -3.7522  -3.7522
    -3.3676  -3.3674  -3.2881  -3.2880  -2.7071  -2.7071  -2.4896  -2.4895
     4.4443   4.4447   6.0339   6.0345   6.2726   6.2729   7.3284   7.3285
     7.4284   7.4285   8.2745   8.2748   8.3713   8.3714   8.4657   8.4658
     8.8027   8.8028   9.5651   9.5651   9.6610   9.6610  10.0481  10.0484
    10.5636  10.5640  10.6789  10.6794  10.7921  10.7927  11.2482  11.2484
    13.7344  13.7350  14.6883  14.6883  14.7277  14.7278  14.8000  14.8001
    14.8431  14.8433  14.8570  14.8570  14.8678  14.8679  14.9168  14.9169
    14.9843  14.9843  15.1100  15.1102  15.1598  15.1599  15.2318  15.2320
    15.2765  15.2765  15.3272  15.3272  15.3728  15.3730  15.8716  15.8718
    16.0296  16.0297

          k = 0.5000 0.4000 0.0000 ( 18758 PWs)   bands (ev):

   -19.8022 -19.8020 -19.7556 -19.7554  -6.5051  -6.5048  -6.4405  -6.4403
    -5.7322  -5.7321  -5.7249  -5.7248  -4.0512  -4.0512  -3.7813  -3.7813
    -3.3412  -3.3410  -3.2913  -3.2912  -2.7805  -2.7804  -2.5011  -2.5010
     4.3802   4.3806   6.0081   6.0086   6.2515   6.2519   7.3059   7.3059
     7.4356   7.4356   8.2852   8.2855   8.4108   8.4109   8.4632   8.4633
     8.7815   8.7816   9.6176   9.6176   9.6930   9.6931  10.1092  10.1095
    10.5674  10.5678  10.7232  10.7237  10.8061  10.8066  11.2618  11.2620
    13.8488  13.8494  14.6911  14.6911  14.7281  14.7283  14.8048  14.8048
    14.8353  14.8354  14.8538  14.8538  14.8589  14.8590  14.9148  14.9148
    14.9814  14.9815  15.1057  15.1059  15.1593  15.1594  15.2442  15.2444
    15.2814  15.2814  15.3358  15.3358  15.3718  15.3719  15.8081  15.8083
    16.0395  16.0395

          k = 0.5000 0.4250 0.0000 ( 18784 PWs)   bands (ev):

   -19.7995 -19.7993 -19.7532 -19.7529  -6.4754  -6.4751  -6.4411  -6.4408
    -5.7495  -5.7495  -5.6976  -5.6975  -4.0816  -4.0816  -3.8051  -3.8051
    -3.3461  -3.3460  -3.2527  -3.2527  -2.8541  -2.8541  -2.5099  -2.5098
     4.3283   4.3287   5.9889   5.9895   6.2357   6.2360   7.2862   7.2862
     7.4405   7.4405   8.2964   8.2967   8.4519   8.4520   8.4577   8.4577
     8.7564   8.7565   9.6609   9.6609   9.7195   9.7195  10.1553  10.1556
    10.5723  10.5727  10.7556  10.7559  10.8212  10.8216  11.2721  11.2723
    13.9411  13.9417  14.6931  14.6931  14.7286  14.7288  14.8075  14.8076
    14.8292  14.8292  14.8423  14.8423  14.8608  14.8608  14.9136  14.9137
    14.9791  14.9791  15.1020  15.1022  15.1589  15.1589  15.2555  15.2557
    15.2843  15.2844  15.3445  15.3445  15.3709  15.3711  15.7548  15.7550
    16.0524  16.0524

          k = 0.5000 0.4500 0.0000 ( 18784 PWs)   bands (ev):

   -19.7975 -19.7973 -19.7514 -19.7512  -6.4575  -6.4573  -6.4367  -6.4365
    -5.7632  -5.7631  -5.6769  -5.6768  -4.1043  -4.1043  -3.8229  -3.8229
    -3.3572  -3.3572  -3.1979  -3.1978  -2.9272  -2.9271  -2.5160  -2.5159
     4.2900   4.2904   5.9758   5.9763   6.2247   6.2250   7.2714   7.2714
     7.4432   7.4432   8.3067   8.3070   8.4510   8.4510   8.4910   8.4910
     8.7296   8.7297   9.6932   9.6932   9.7393   9.7393  10.1867  10.1870
    10.5775  10.5778  10.7762  10.7763  10.8358  10.8360  11.2794  11.2796
    14.0091  14.0097  14.6943  14.6943  14.7295  14.7297  14.8086  14.8086
    14.8251  14.8252  14.8331  14.8331  14.8626  14.8626  14.9132  14.9132
    14.9773  14.9774  15.0994  15.0996  15.1585  15.1585  15.2655  15.2656
    15.2851  15.2852  15.3524  15.3525  15.3703  15.3704  15.7140  15.7142
    16.0653  16.0653

          k = 0.5000 0.4750 0.0000 ( 18776 PWs)   bands (ev):

   -19.7963 -19.7961 -19.7503 -19.7501  -6.4530  -6.4530  -6.4270  -6.4269
    -5.7719  -5.7719  -5.6640  -5.6639  -4.1184  -4.1184  -3.8339  -3.8339
    -3.3650  -3.3650  -3.1368  -3.1368  -2.9984  -2.9983  -2.5197  -2.5196
     4.2666   4.2670   5.9681   5.9686   6.2182   6.2185   7.2622   7.2622
     7.4444   7.4444   8.3143   8.3146   8.4454   8.4454   8.5221   8.5221
     8.7061   8.7063   9.7133   9.7133   9.7514   9.7514  10.2047  10.2050
    10.5814  10.5817  10.7870  10.7871  10.8465  10.8466  11.2837  11.2839
    14.0508  14.0514  14.6950  14.6950  14.7303  14.7305  14.8087  14.8087
    14.8229  14.8229  14.8271  14.8271  14.8639  14.8639  14.9131  14.9131
    14.9762  14.9763  15.0978  15.0980  15.1582  15.1582  15.2736  15.2738
    15.2837  15.2838  15.3583  15.3583  15.3699  15.3700  15.6880  15.6882
    16.0748  16.0748

          k = 0.5000 0.5000 0.0000 ( 18728 PWs)   bands (ev):

   -19.7959 -19.7957 -19.7499 -19.7497  -6.4525  -6.4525  -6.4226  -6.4226
    -5.7749  -5.7749  -5.6596  -5.6595  -4.1231  -4.1231  -3.8376  -3.8376
    -3.3676  -3.3676  -3.0829  -3.0829  -3.0556  -3.0555  -2.5209  -2.5208
     4.2588   4.2591   5.9656   5.9661   6.2160   6.2163   7.2591   7.2591
     7.4448   7.4448   8.3171   8.3174   8.4432   8.4432   8.5350   8.5350
     8.6959   8.6961   9.7202   9.7202   9.7556   9.7556  10.2105  10.2108
    10.5829  10.5832  10.7904  10.7904  10.8505  10.8505  11.2851  11.2853
    14.0649  14.0655  14.6953  14.6953  14.7307  14.7309  14.8086  14.8086
    14.8223  14.8223  14.8251  14.8251  14.8644  14.8644  14.9131  14.9131
    14.9759  14.9759  15.0973  15.0975  15.1581  15.1581  15.2791  15.2793
    15.2807  15.2807  15.3606  15.3606  15.3698  15.3700  15.6791  15.6793
    16.0783  16.0783

          k = 0.4750 0.4750 0.0000 ( 18778 PWs)   bands (ev):

   -19.7969 -19.7963 -19.7509 -19.7502  -6.4585  -6.4478  -6.4443  -6.4181
    -5.7848  -5.7536  -5.6709  -5.6655  -4.1190  -4.1084  -3.8340  -3.8265
    -3.3672  -3.3573  -3.2031  -3.0831  -3.0455  -2.9320  -2.5195  -2.5173
     4.2735   4.2759   5.9706   5.9712   6.2194   6.2216   7.2644   7.2663
     7.4409   7.4473   8.3069   8.3172   8.4412   8.4532   8.4906   8.5344
     8.6965   8.7300   9.6985   9.7146   9.7407   9.7542  10.1988  10.1996
    10.5793  10.5807  10.7834  10.7843  10.8414  10.8436  11.2797  11.2850
    14.0364  14.0382  14.6927  14.6969  14.7264  14.7342  14.8084  14.8092
    14.8228  14.8241  14.8256  14.8323  14.8602  14.8669  14.9117  14.9144
    14.9752  14.9780  15.0980  15.0988  15.1581  15.1584  15.2695  15.2743
    15.2773  15.2894  15.3520  15.3608  15.3699  15.3703  15.6825  15.7109
    16.0476  16.0968

          k = 0.4500 0.4500 0.0000 ( 18792 PWs)   bands (ev):

   -19.8003 -19.7978 -19.7540 -19.7515  -6.5010  -6.4761  -6.4339  -6.4046
    -5.8132  -5.7030  -5.6985  -5.6822  -4.1067  -4.0670  -3.8231  -3.7944
    -3.3660  -3.3284  -3.3274  -3.0838  -3.0162  -2.7966  -2.5156  -2.5065
     4.3166   4.3263   5.9855   5.9862   6.2302   6.2381   7.2799   7.2873
     7.4292   7.4548   8.2844   8.3171   8.4032   8.4354   8.4737   8.5327
     8.6971   8.7870   9.6355   9.6977   9.6990   9.7504  10.1646  10.1671
    10.5679  10.5737  10.7633  10.7661  10.8147  10.8232  11.2632  11.2841
    13.9538  13.9597  14.6850  14.7016  14.7176  14.7443  14.8066  14.8115
    14.8247  14.8257  14.8284  14.8490  14.8494  14.8750  14.9079  14.9186
    14.9730  14.9841  15.1001  15.1030  15.1581  15.1593  15.2583  15.2612
    15.2680  15.2983  15.3332  15.3618  15.3701  15.3715  15.6923  15.7967
    15.9772  16.1497

          k = 0.4250 0.4250 0.0000 ( 18762 PWs)   bands (ev):

   -19.8058 -19.8003 -19.7591 -19.7535  -6.5775  -6.5045  -6.4110  -6.3822
    -5.8570  -5.7503  -5.7066  -5.6261  -4.0865  -4.0058  -3.8052  -3.7453
    -3.4419  -3.3642  -3.2810  -3.0851  -2.9696  -2.6657  -2.5093  -2.4880
     4.3868   4.4087   6.0100   6.0110   6.2513   6.2664   7.3055   7.3208
     7.4092   7.4672   8.2607   8.3050   8.3179   8.4257   8.4923   8.5304
     8.6955   8.8377   9.5367   9.6390   9.6687   9.7444  10.1115  10.1153
    10.5486  10.5620  10.7324  10.7359  10.7716  10.7894  11.2359  11.2820
    13.8258  13.8369  14.6728  14.7079  14.7109  14.7600  14.8004  14.8155
    14.8164  14.8268  14.8328  14.8413  14.8687  14.8911  14.9018  14.9264
    14.9697  14.9932  15.1035  15.1096  15.1583  15.1603  15.2426  15.2463
    15.2541  15.3071  15.3128  15.3634  15.3704  15.3725  15.7084  15.9022
    15.9207  16.2304

          k = 0.4000 0.4000 0.0000 ( 18756 PWs)   bands (ev):

   -19.8134 -19.8037 -19.7662 -19.7563  -6.6619  -6.5426  -6.3792  -6.3513
    -5.9112  -5.8062  -5.7349  -5.5502  -4.0587  -3.9335  -3.7807  -3.6844
    -3.5389  -3.3621  -3.2229  -3.0872  -2.9084  -2.5433  -2.5010  -2.4611
     4.4818   4.5207   6.0434   6.0450   6.2868   6.3078   7.3403   7.3642
     7.3800   7.4843   8.2071   8.2414   8.3209   8.4125   8.5016   8.5280
     8.6889   8.8762   9.4103   9.5729   9.6262   9.7367  10.0453  10.0477
    10.5211  10.5459  10.6936  10.6937  10.7142  10.7423  11.1980  11.2782
    13.6619  13.6777  14.6575  14.7097  14.7117  14.7796  14.7862  14.7899
    14.8241  14.8272  14.8347  14.8450  14.8875  14.8933  14.9146  14.9380
    14.9658  15.0040  15.1082  15.1173  15.1590  15.1603  15.2213  15.2335
    15.2381  15.2936  15.3158  15.3656  15.3710  15.3718  15.7308  15.8459
    16.0702  16.3314

          k = 0.3750 0.3750 0.0000 ( 18756 PWs)   bands (ev):

   -19.8229 -19.8080 -19.7750 -19.7599  -6.7474  -6.5897  -6.3391  -6.3123
    -5.9698  -5.8647  -5.7626  -5.4802  -4.0239  -3.8583  -3.7500  -3.6177
    -3.6152  -3.3601  -3.1594  -3.0905  -2.8352  -2.4914  -2.4333  -2.4259
     4.5984   4.6590   6.0850   6.0875   6.3417   6.3642   7.3408   7.3836
     7.4125   7.5057   8.1187   8.2285   8.3275   8.3960   8.4983   8.5265
     8.6755   8.9021   9.2659   9.5134   9.5683   9.7280   9.9685   9.9736
    10.4852  10.5253  10.6398  10.6446  10.6500  10.6823  11.1499  11.2723
    13.4701  13.4895  14.6408  14.7029  14.7149  14.7446  14.7826  14.8015
    14.8234  14.8329  14.8336  14.8528  14.8829  14.9075  14.9418  14.9540
    14.9638  15.0149  15.1142  15.1255  15.1570  15.1612  15.1993  15.2201
    15.2235  15.2758  15.3248  15.3680  15.3683  15.3718  15.7600  15.8201
    16.2337  16.4451

          k = 0.3500 0.3500 0.0000 ( 18754 PWs)   bands (ev):

   -19.8339 -19.8131 -19.7853 -19.7640  -6.8299  -6.6457  -6.2912  -6.2657
    -6.0261  -5.9211  -5.7862  -5.4218  -3.9828  -3.7864  -3.7137  -3.6675
    -3.5503  -3.3586  -3.0969  -3.0952  -2.7527  -2.4820  -2.3833  -2.3391
     4.7332   4.8195   6.1336   6.1374   6.4208   6.4376   7.2912   7.4342
     7.4573   7.5314   8.0517   8.2226   8.3386   8.3770   8.4823   8.5272
     8.6567   8.9172   9.1137   9.4692   9.4942   9.7190   9.8828   9.9040
    10.4411  10.5000  10.5651  10.5745  10.6044  10.6100  11.0923  11.2640
    13.2569  13.2785  14.6244  14.6698  14.6910  14.7259  14.7871  14.8114
    14.8245  14.8270  14.8435  14.8627  14.8708  14.9295  14.9664  14.9708
    14.9736  15.0241  15.1216  15.1335  15.1482  15.1667  15.1778  15.2061
    15.2135  15.2582  15.3339  15.3594  15.3711  15.3731  15.7969  15.8293
    16.4009  16.5624

          k = 0.3250 0.3250 0.0000 ( 18746 PWs)   bands (ev):

   -19.8464 -19.8189 -19.7968 -19.7688  -6.9074  -6.7103  -6.2361  -6.2121
    -6.0741  -5.9722  -5.8025  -5.3779  -3.9361  -3.7218  -3.6942  -3.6726
    -3.4868  -3.3582  -3.1019  -3.0415  -2.6637  -2.4744  -2.3357  -2.2639
     4.8823   4.9970   6.1878   6.1933   6.5278   6.5307   7.2323   7.4860
     7.4905   7.5609   8.0212   8.2231   8.3546   8.3565   8.4569   8.5312
     8.6377   8.9249   8.9642   9.4055   9.4429   9.7103   9.7956   9.8423
    10.3890  10.4697  10.4778  10.4985  10.5260  10.5590  11.0262  11.2531
    13.0273  13.0499  14.6088  14.6124  14.6237  14.7409  14.7886  14.8001
    14.8163  14.8475  14.8530  14.8573  14.8743  14.9522  14.9756  14.9967
    15.0007  15.0306  15.1302  15.1342  15.1406  15.1576  15.1769  15.1919
    15.2082  15.2406  15.3433  15.3445  15.3740  15.3750  15.8421  15.8718
    16.5615  16.6580

          k = 0.3000 0.3000 0.0000 ( 18735 PWs)   bands (ev):

   -19.8600 -19.8252 -19.8094 -19.7740  -6.9789  -6.7831  -6.1747  -6.1524
    -6.1089  -6.0159  -5.8092  -5.3481  -3.8849  -3.6966  -3.6659  -3.6276
    -3.4303  -3.3595  -3.1107  -2.9981  -2.5711  -2.4709  -2.2871  -2.2101
     5.0423   5.1857   6.2457   6.2534   6.6458   6.6648   7.1675   7.4898
     7.5507   7.5942   8.0380   8.2263   8.3360   8.3734   8.4307   8.5403
     8.6253   8.8287   8.9297   9.3078   9.4316   9.7020   9.7121   9.7904
    10.3293  10.3847  10.4127  10.4312  10.4333  10.5160  10.9533  11.2393
    12.7856  12.8081  14.5307  14.5410  14.5937  14.7547  14.7584  14.8004
    14.8167  14.8427  14.8613  14.8700  14.8870  14.9739  14.9909  15.0217
    15.0309  15.0344  15.1174  15.1388  15.1398  15.1465  15.1775  15.1919
    15.2052  15.2228  15.3225  15.3527  15.3766  15.3779  15.8952  15.9391
    16.5189  16.5853

          k = 0.2750 0.2750 0.0000 ( 18721 PWs)   bands (ev):

   -19.8743 -19.8320 -19.8227 -19.7796  -7.0438  -6.8625  -6.1279  -6.1081
    -6.0877  -6.0511  -5.8048  -5.3293  -3.8302  -3.6782  -3.6180  -3.5798
    -3.3827  -3.3628  -3.1221  -2.9697  -2.4782  -2.4741  -2.2423  -2.1790
     5.2103   5.3793   6.3050   6.3157   6.7847   6.8306   7.1022   7.4744
     7.6130   7.6309   8.0973   8.2226   8.3179   8.3879   8.4200   8.5559
     8.6245   8.7222   8.9366   9.2090   9.4298   9.6367   9.6940   9.7482
    10.2627  10.2875  10.3187  10.3269  10.3891  10.4771  10.8761  11.2221
    12.5350  12.5567  14.4204  14.4413  14.5783  14.7103  14.7770  14.7783
    14.8278  14.8343  14.8682  14.8916  14.9002  14.9935  15.0109  15.0375
    15.0474  15.0603  15.1002  15.1216  15.1501  15.1510  15.1634  15.2022
    15.2048  15.2102  15.2935  15.3620  15.3786  15.3821  15.9538  16.0149
    16.3127  16.3644

          k = 0.2500 0.2500 0.0000 ( 18711 PWs)   bands (ev):

   -19.8890 -19.8391 -19.8363 -19.7854  -7.1025  -6.9459  -6.1305  -6.0775
    -6.0373  -6.0190  -5.7886  -5.3169  -3.7734  -3.6449  -3.5761  -3.5301
    -3.3687  -3.3448  -3.1362  -2.9580  -2.4865  -2.3880  -2.2065  -2.1707
     5.3835   5.5711   6.3631   6.3776   6.9479   7.0211   7.0428   7.4544
     7.6712   7.6752   8.1834   8.2018   8.3052   8.3824   8.4435   8.5792
     8.6368   8.6661   8.9510   9.1174   9.4324   9.5732   9.6849   9.7148
    10.1881  10.1903  10.2148  10.2192  10.3346  10.4434  10.7979  11.2008
    12.2788  12.2988  14.2762  14.3246  14.5621  14.6567  14.7479  14.7958
    14.8127  14.8520  14.8741  14.9115  14.9132  15.0106  15.0336  15.0414
    15.0726  15.0841  15.0870  15.1057  15.1495  15.1541  15.1608  15.1872
    15.1985  15.2304  15.2592  15.3709  15.3794  15.3880  16.0137  16.0390
    16.0747  16.2302

          k = 0.2250 0.2250 0.0000 ( 18695 PWs)   bands (ev):

   -19.9038 -19.8500 -19.8462 -19.7913  -7.1550  -7.0302  -6.1176  -6.0955
    -5.9638  -5.9477  -5.7605  -5.3058  -3.7156  -3.6029  -3.5378  -3.4797
    -3.3773  -3.3170  -3.1530  -2.9634  -2.5096  -2.3030  -2.1840  -2.1836
     5.5593   5.7552   6.4172   6.4362   6.9952   7.1339   7.2290   7.4414
     7.7150   7.7356   8.1682   8.2815   8.3014   8.3497   8.5060   8.6108
     8.6609   8.6712   8.9784   9.0407   9.4354   9.5241   9.6715   9.6898
    10.0885  10.0970  10.1134  10.1188  10.2673  10.4155  10.7227  11.1746
    12.0195  12.0374  14.0955  14.1934  14.5449  14.5951  14.7062  14.7976
    14.8138  14.8688  14.8792  14.9249  14.9292  15.0248  15.0474  15.0525
    15.0735  15.0907  15.0962  15.1076  15.1362  15.1571  15.1711  15.1712
    15.1942  15.2242  15.2512  15.3784  15.3793  15.3961  15.8127  16.0698
    16.0908  16.1206

          k = 0.2000 0.2000 0.0000 ( 18689 PWs)   bands (ev):

   -19.9182 -19.8633 -19.8533 -19.7971  -7.2018  -7.1125  -6.1058  -6.0913
    -5.8891  -5.8753  -5.7211  -5.2917  -3.6584  -3.5587  -3.5005  -3.4300
    -3.3887  -3.2989  -3.1723  -2.9851  -2.5437  -2.2250  -2.2144  -2.1779
     5.7344   5.9261   6.4647   6.4888   6.9637   7.3386   7.4409   7.4426
     7.7623   7.7929   8.1350   8.3098   8.3100   8.3801   8.6048   8.6503
     8.6934   8.7188   8.9853   9.0233   9.4365   9.4915   9.6473   9.6727
     9.9762   9.9909  10.0259  10.0342  10.1855  10.3933  10.6536  11.1422
    11.7596  11.7749  13.8833  14.0521  14.5269  14.5274  14.6487  14.7831
    14.8302  14.8839  14.8843  14.9344  14.9437  15.0350  15.0466  15.0561
    15.0765  15.0874  15.1126  15.1168  15.1237  15.1581  15.1607  15.1800
    15.1906  15.2015  15.2714  15.3753  15.3865  15.4063  15.6407  15.8964
    16.0361  16.0455

          k = 0.1750 0.1750 0.0000 ( 18699 PWs)   bands (ev):

   -19.9320 -19.8761 -19.8601 -19.8027  -7.2433  -7.1902  -6.1097  -6.0540
    -5.8152  -5.8037  -5.6721  -5.2719  -3.6032  -3.5182  -3.4619  -3.4027
    -3.3822  -3.2904  -3.1937  -3.0210  -2.5874  -2.2583  -2.1895  -2.1553
     5.9051   6.0798   6.5033   6.5330   6.9500   7.4540   7.5557   7.6421
     7.8132   7.8464   8.1196   8.2803   8.3335   8.4721   8.6956   8.7301
     8.7379   8.7891   8.9560   9.0866   9.4345   9.4763   9.6020   9.6635
     9.8558   9.8991   9.9524   9.9561  10.0906  10.3764  10.5918  11.1026
    11.5015  11.5139  13.6518  13.9070  14.4562  14.5084  14.5707  14.7695
    14.8435  14.8884  14.8982  14.9408  14.9533  15.0322  15.0345  15.0631
    15.0670  15.0975  15.1044  15.1121  15.1306  15.1525  15.1664  15.1863
    15.1915  15.2053  15.2898  15.3699  15.3914  15.4182  15.5171  15.6753
    15.9414  15.9741

          k = 0.1500 0.1500 0.0000 ( 18711 PWs)   bands (ev):

   -19.9447 -19.8878 -19.8665 -19.8079  -7.2796  -7.2612  -6.1085  -6.0088
    -5.7440  -5.7349  -5.6155  -5.2451  -3.5515  -3.4863  -3.4206  -3.4186
    -3.3375  -3.2912  -3.2163  -3.0680  -2.6376  -2.3092  -2.2182  -2.0946
     6.0672   6.2133   6.5323   6.5671   6.9536   7.4786   7.7771   7.7861
     7.8673   7.8962   8.1590   8.2667   8.3727   8.5549   8.7434   8.7668
     8.8707   8.9010   8.9554   9.1611   9.4296   9.4793   9.5291   9.6622
     9.7402   9.8193   9.8840   9.9072   9.9868  10.3637  10.5362  11.0547
    11.2476  11.2568  13.4167  13.7649  14.3850  14.4703  14.4900  14.7572
    14.8513  14.8930  14.9106  14.9438  14.9575  15.0101  15.0172  15.0502
    15.0793  15.0912  15.1016  15.1121  15.1309  15.1620  15.1746  15.1882
    15.2009  15.2243  15.3046  15.3630  15.3885  15.4303  15.4314  15.5105
    15.7951  15.9305

          k = 0.1250 0.1250 0.0000 ( 18699 PWs)   bands (ev):

   -19.9561 -19.8984 -19.8722 -19.8127  -7.3237  -7.3108  -6.1040  -5.9592
    -5.6778  -5.6709  -5.5545  -5.2120  -3.5048  -3.4666  -3.4356  -3.3759
    -3.3010  -3.2972  -3.2392  -3.1218  -2.6898  -2.3605  -2.2614  -2.0433
     6.2164   6.3254   6.5519   6.5911   6.9714   7.5106   7.8354   7.9238
     7.9424   7.9936   8.2673   8.2881   8.4258   8.6306   8.7889   8.7997
     8.9533   8.9833   9.0832   9.2284   9.4226   9.4353   9.5011   9.6343
     9.6691   9.7634   9.8255   9.8814   9.8862  10.3545  10.4850  10.9980
    11.0004  11.0063  13.1927  13.6322  14.3176  14.3531  14.4719  14.7465
    14.8489  14.8975  14.9216  14.9440  14.9566  14.9751  15.0024  15.0379
    15.0912  15.0925  15.0979  15.1104  15.1273  15.1770  15.1842  15.1850
    15.2180  15.2487  15.3095  15.3437  15.3561  15.3732  15.4354  15.4402
    15.6304  15.8227

          k = 0.1000 0.1000 0.0000 ( 18699 PWs)   bands (ev):

   -19.9658 -19.9074 -19.8772 -19.8167  -7.3765  -7.3368  -6.0976  -5.9094
    -5.6189  -5.6142  -5.4933  -5.1750  -3.4644  -3.4601  -3.4526  -3.3287
    -3.3186  -3.2625  -3.2610  -3.1774  -2.7387  -2.4062  -2.3145  -2.0015
     6.3487   6.4157   6.5635   6.6060   6.9988   7.5451   7.8282   7.9811
     7.9848   8.1949   8.2783   8.4664   8.4879   8.7035   8.8263   8.8264
     9.0238   9.0360   9.2607   9.2612   9.3340   9.4147   9.5426   9.5439
     9.6854   9.7490   9.7876   9.7913   9.8795  10.3479  10.4368  10.7627
    10.7653  10.9329  12.9923  13.5149  14.2316  14.2577  14.4544  14.7377
    14.8301  14.9020  14.9312  14.9423  14.9500  14.9520  14.9882  15.0262
    15.0847  15.0980  15.1040  15.1081  15.1239  15.1745  15.1918  15.1966
    15.2379  15.2723  15.2751  15.2813  15.3345  15.3510  15.4268  15.4462
    15.4916  15.7167

          k = 0.0750 0.0750 0.0000 ( 18695 PWs)   bands (ev):

   -19.9737 -19.9146 -19.8812 -19.8200  -7.4185  -7.3574  -6.0908  -5.8639
    -5.5698  -5.5670  -5.4368  -5.1379  -3.4680  -3.4651  -3.4316  -3.3412
    -3.2814  -3.2802  -3.2343  -3.2290  -2.7797  -2.4424  -2.3714  -1.9691
     6.4599   6.4849   6.5694   6.6139   7.0298   7.5774   7.8040   8.0223
     8.0362   8.2900   8.3762   8.5515   8.6521   8.7768   8.8453   8.8514
     9.0669   9.1051   9.2376   9.2430   9.3841   9.4072   9.4743   9.6054
     9.7142   9.7410   9.7791   9.7908   9.8796  10.3433  10.3915  10.5373
    10.5382  10.8626  12.8253  13.4178  14.1208  14.2083  14.4375  14.7309
    14.7978  14.9059  14.9394  14.9397  14.9400  14.9459  14.9754  15.0154
    15.0787  15.0789  15.0966  15.1183  15.1208  15.1610  15.2022  15.2053
    15.2079  15.2207  15.2562  15.3014  15.3093  15.3483  15.4274  15.4360
    15.4480  15.6330

          k = 0.0500 0.0500 0.0000 ( 18719 PWs)   bands (ev):

   -19.9794 -19.9199 -19.8841 -19.8224  -7.4490  -7.3723  -6.0850  -5.8271
    -5.5328  -5.5314  -5.3906  -5.1058  -3.4804  -3.4763  -3.4074  -3.3640
    -3.2953  -3.2711  -3.2388  -3.2136  -2.8099  -2.4675  -2.4236  -1.9461
     6.5336   6.5453   6.5717   6.6173   7.0580   7.6034   7.7784   8.0529
     8.0839   8.3045   8.5211   8.6071   8.8271   8.8514   8.8572   8.8630
     9.0769   9.1570   9.1769   9.1900   9.3848   9.4010   9.4280   9.6908
     9.7616   9.7889   9.8212   9.8288   9.8819  10.3281  10.3306  10.3404
    10.3509  10.7943  12.6998  13.3453  14.0332  14.1717  14.4216  14.7260
    14.7647  14.9084  14.9362  14.9371  14.9401  14.9476  14.9650  14.9945
    15.0058  15.0742  15.0902  15.1180  15.1268  15.1476  15.1673  15.1883
    15.2160  15.2172  15.2705  15.2938  15.3247  15.3473  15.4281  15.4289
    15.4469  15.5723

          k = 0.0250 0.0250 0.0000 ( 18719 PWs)   bands (ev):

   -19.9829 -19.9232 -19.8859 -19.8239  -7.4675  -7.3814  -6.0811  -5.8031
    -5.5098  -5.5092  -5.3601  -5.0837  -3.4885  -3.4870  -3.3926  -3.3812
    -3.3050  -3.2987  -3.2080  -3.2009  -2.8280  -2.4819  -2.4614  -1.9324
     6.5627   6.5723   6.5997   6.6183   7.0776   7.6201   7.7595   8.0732
     8.1173   8.3143   8.6214   8.6452   8.8633   8.8654   8.9237   8.9774
     9.0655   9.1025   9.1244   9.2322   9.3100   9.3970   9.4032   9.7967
     9.8345   9.8600   9.8671   9.8696   9.8841  10.1470  10.1485  10.3201
    10.3387  10.7412  12.6220  13.3005  13.9774  14.1493  14.4090  14.7232
    14.7409  14.9020  14.9205  14.9353  14.9355  14.9361  14.9535  14.9582
    14.9986  15.0715  15.0860  15.1161  15.1323  15.1379  15.1646  15.1706
    15.2232  15.2234  15.2797  15.2854  15.3412  15.3472  15.4295  15.4302
    15.4452  15.5356

          k = 0.0000 0.0000 0.0000 ( 18751 PWs)   bands (ev):

   -19.9841 -19.9242 -19.8866 -19.8244  -7.4737  -7.3845  -6.0798  -5.7947
    -5.5020  -5.5017  -5.3495  -5.0759  -3.4913  -3.4913  -3.3875  -3.3875
    -3.3083  -3.3083  -3.1966  -3.1966  -2.8341  -2.4865  -2.4753  -1.9278
     6.5723   6.5723   6.6184   6.6184   7.0847   7.6258   7.7525   8.0804
     8.1295   8.3178   8.6588   8.6588   8.8651   8.8651   8.9664   9.0562
     9.0570   9.0831   9.0831   9.2531   9.2531   9.3956   9.3956   9.8777
     9.8777   9.8850   9.8850   9.9004   9.9004  10.0413  10.0430  10.3079
    10.3382  10.7205  12.5956  13.2853  13.9583  14.1417  14.4039  14.7223
    14.7324  14.8778  14.9148  14.9347  14.9347  14.9354  14.9557  14.9557
    14.9956  15.0706  15.0843  15.1155  15.1341  15.1341  15.1650  15.1650
    15.2256  15.2256  15.2828  15.2828  15.3472  15.3472  15.4306  15.4306
    15.4444  15.5231

     Writing all to output data dir ./La2CuO4/La2CuO4.save/
 
     init_run     :      1.46s CPU      1.71s WALL (       1 calls)
     electrons    :    577.68s CPU    585.42s WALL (       1 calls)

     Called by init_run:
     wfcinit      :      0.00s CPU      0.00s WALL (       1 calls)
     wfcinit:atom :      0.17s CPU      0.24s WALL (      61 calls)
     wfcinit:wfcr :     12.82s CPU     13.01s WALL (      61 calls)
     potinit      :      0.29s CPU      0.30s WALL (       1 calls)
     hinit0       :      0.31s CPU      0.34s WALL (       1 calls)

     Called by electrons:
     c_bands      :    577.68s CPU    585.42s WALL (       1 calls)
     v_of_rho     :      0.01s CPU      0.01s WALL (       1 calls)
     v_h          :      0.00s CPU      0.01s WALL (       1 calls)
     v_xc         :      0.00s CPU      0.00s WALL (       1 calls)
     newd         :      0.79s CPU      0.99s WALL (       1 calls)
     PAW_pot      :      0.27s CPU      0.28s WALL (       1 calls)

     Called by c_bands:
     init_us_2    :      0.12s CPU      0.23s WALL (      61 calls)
     init_us_2:cp :      0.12s CPU      0.23s WALL (      61 calls)
     cegterg      :    561.07s CPU    568.33s WALL (     302 calls)

     Called by sum_band:

     Called by *egterg:
     cdiaghg      :     32.34s CPU     32.50s WALL (    5681 calls)
     cegterg:over :     60.62s CPU     61.90s WALL (    5620 calls)
     cegterg:upda :     35.72s CPU     35.78s WALL (    5620 calls)
     cegterg:last :     91.39s CPU     91.42s WALL (    2730 calls)
     h_psi        :    291.02s CPU    295.77s WALL (    5983 calls)
     s_psi        :     45.07s CPU     45.55s WALL (    5983 calls)
     g_psi        :      2.07s CPU      2.07s WALL (    5620 calls)

     Called by h_psi:
     h_psi:calbec :     45.71s CPU     46.29s WALL (    5983 calls)
     vloc_psi     :    196.23s CPU    200.01s WALL (    5983 calls)
     add_vuspsi   :     45.24s CPU     45.35s WALL (    5983 calls)

     General routines
     calbec       :     45.69s CPU     46.28s WALL (    5983 calls)
     fft          :      0.03s CPU      0.04s WALL (       6 calls)
     ffts         :      0.00s CPU      0.00s WALL (       1 calls)
     fftw         :    148.30s CPU    151.09s WALL (  500132 calls)
     interpolate  :      0.00s CPU      0.00s WALL (       1 calls)
     davcio       :      0.17s CPU      0.30s WALL (     122 calls)
 
     Parallel routines

     PAW routines
     PAW_pot      :      0.27s CPU      0.28s WALL (       1 calls)
 
     PWSCF        :   9m39.66s CPU   9m48.61s WALL

 
   This run was terminated on:   1:52: 1  31Dec2023            

=------------------------------------------------------------------------------=
   JOB DONE.
=------------------------------------------------------------------------------=
