
     Program PWSCF v.7.2 starts on 30Dec2023 at 22:32: 1 

     This program is part of the open-source Quantum ESPRESSO suite
     for quantum simulation of materials; please cite
         "P. Giannozzi et al., J. Phys.:Condens. Matter 21 395502 (2009);
         "P. Giannozzi et al., J. Phys.:Condens. Matter 29 465901 (2017);
         "P. Giannozzi et al., J. Chem. Phys. 152 154105 (2020);
          URL http://www.quantum-espresso.org", 
     in publications or presentations arising from this work. More details at
     http://www.quantum-espresso.org/quote

     Parallel version (MPI), running on     4 processors

     MPI processes distributed on     1 nodes
     4295 MiB available memory on the printing compute node when the environment starts
 
     Waiting for input...
     Reading input from standard input

     Current dimensions of program PWSCF are:
     Max number of different atomic species (ntypx) = 10
     Max number of k-points (npk) =  40000
     Max angular momentum in pseudopotentials (lmaxx) =  4
     file La.pz-spfn-kjpaw_psl.1.0.0.UPF: wavefunction(s)  5S 5D 4F renormalized
     file Cu.pz-dn-rrkjus_psl.1.0.0.UPF: wavefunction(s)  3D renormalized

     Atomic positions and unit cell read from directory:
     ./La2CuO4/La2CuO4.save/
 
     Found identity + (  0.5000  0.5000  0.5000) symmetry
     This is a supercell, fractional translations are disabled
 
     R & G space division:  proc/nbgrp/npool/nimage =       4
     Subspace diagonalization in iterative solution of the eigenvalue problem:
     a serial algorithm will be used

 
     Parallelization info
     --------------------
     sticks:   dense  smooth     PW     G-vecs:    dense   smooth      PW
     Min         741     370    105               105865    37454    5539
     Max         742     371    106               105880    37469    5550
     Sum        2965    1481    421               423481   149831   22171
 
     Using Slab Decomposition
 


     bravais-lattice index     =            6
     lattice parameter (alat)  =       7.2070  a.u.
     unit-cell volume          =    1298.0901 (a.u.)^3
     number of atoms/cell      =           14
     number of atomic types    =            3
     number of electrons       =       114.00
     number of Kohn-Sham states=           90
     kinetic-energy cutoff     =      90.0000  Ry
     charge density cutoff     =     720.0000  Ry
     Exchange-correlation= LDA
                           (   1   1   0   0   0   0   0)

     celldm(1)=   7.207037  celldm(2)=   0.000000  celldm(3)=   3.467644
     celldm(4)=   0.000000  celldm(5)=   0.000000  celldm(6)=   0.000000

     crystal axes: (cart. coord. in units of alat)
               a(1) = (   1.000000   0.000000   0.000000 )  
               a(2) = (   0.000000   1.000000   0.000000 )  
               a(3) = (   0.000000   0.000000   3.467644 )  

     reciprocal axes: (cart. coord. in units 2 pi/alat)
               b(1) = (  1.000000  0.000000  0.000000 )  
               b(2) = (  0.000000  1.000000  0.000000 )  
               b(3) = (  0.000000  0.000000  0.288380 )  


     PseudoPot. # 1 for La read from file:
     ~/q-e/pslibrary/pz/PSEUDOPOTENTIALS/La.pz-spfn-kjpaw_psl.1.0.0.UPF
     MD5 check sum: Not computed, couldn't open file
     Pseudo is Projector augmented-wave + core cor, Zval = 11.0
     Generated using 'atomic' code by A. Dal Corso  v.7.2
     Shape of augmentation charge: PSQ
     Using radial grid of 1253 points,  8 beta functions with: 
                l(1) =   0
                l(2) =   0
                l(3) =   1
                l(4) =   1
                l(5) =   2
                l(6) =   2
                l(7) =   3
                l(8) =   3
     Q(r) pseudized with 0 coefficients 


     PseudoPot. # 2 for Cu read from file:
     ~/q-e/pslibrary/pz/PSEUDOPOTENTIALS/Cu.pz-dn-rrkjus_psl.1.0.0.UPF
     MD5 check sum: Not computed, couldn't open file
     Pseudo is Ultrasoft + core correction, Zval = 11.0
     Generated using 'atomic' code by A. Dal Corso  v.7.2
     Using radial grid of 1199 points,  6 beta functions with: 
                l(1) =   0
                l(2) =   0
                l(3) =   1
                l(4) =   1
                l(5) =   2
                l(6) =   2
     Q(r) pseudized with 0 coefficients 


     PseudoPot. # 3 for O  read from file:
     ~/q-e/pslibrary/pz/PSEUDOPOTENTIALS/O.pz-n-rrkjus_psl.1.0.0.UPF
     MD5 check sum: Not computed, couldn't open file
     Pseudo is Ultrasoft + core correction, Zval =  6.0
     Generated using 'atomic' code by A. Dal Corso  v.7.2
     Using radial grid of 1095 points,  4 beta functions with: 
                l(1) =   0
                l(2) =   0
                l(3) =   1
                l(4) =   1
     Q(r) pseudized with 0 coefficients 


     atomic species   valence    mass     pseudopotential
     La               11.00   138.91000     La( 1.00)
     Cu               11.00    63.54600     Cu( 1.00)
     O                 6.00    15.99900     O ( 1.00)

     16 Sym. Ops., with inversion, found


                                    s                        frac. trans.

      isym =  1     identity                                     

 cryst.   s( 1) = (     1          0          0      )
                  (     0          1          0      )
                  (     0          0          1      )

 cart.    s( 1) = (  1.0000000  0.0000000  0.0000000 )
                  (  0.0000000  1.0000000  0.0000000 )
                  (  0.0000000  0.0000000  1.0000000 )


      isym =  2     180 deg rotation - cart. axis [0,0,1]        

 cryst.   s( 2) = (    -1          0          0      )
                  (     0         -1          0      )
                  (     0          0          1      )

 cart.    s( 2) = ( -1.0000000  0.0000000  0.0000000 )
                  (  0.0000000 -1.0000000  0.0000000 )
                  (  0.0000000  0.0000000  1.0000000 )


      isym =  3     180 deg rotation - cart. axis [0,1,0]        

 cryst.   s( 3) = (    -1          0          0      )
                  (     0          1          0      )
                  (     0          0         -1      )

 cart.    s( 3) = ( -1.0000000  0.0000000  0.0000000 )
                  (  0.0000000  1.0000000  0.0000000 )
                  (  0.0000000  0.0000000 -1.0000000 )


      isym =  4     180 deg rotation - cart. axis [1,0,0]        

 cryst.   s( 4) = (     1          0          0      )
                  (     0         -1          0      )
                  (     0          0         -1      )

 cart.    s( 4) = (  1.0000000  0.0000000  0.0000000 )
                  (  0.0000000 -1.0000000  0.0000000 )
                  (  0.0000000  0.0000000 -1.0000000 )


      isym =  5     180 deg rotation - cart. axis [1,1,0]        

 cryst.   s( 5) = (     0          1          0      )
                  (     1          0          0      )
                  (     0          0         -1      )

 cart.    s( 5) = (  0.0000000  1.0000000  0.0000000 )
                  (  1.0000000  0.0000000  0.0000000 )
                  (  0.0000000  0.0000000 -1.0000000 )


      isym =  6     180 deg rotation - cart. axis [1,-1,0]       

 cryst.   s( 6) = (     0         -1          0      )
                  (    -1          0          0      )
                  (     0          0         -1      )

 cart.    s( 6) = (  0.0000000 -1.0000000  0.0000000 )
                  ( -1.0000000  0.0000000  0.0000000 )
                  (  0.0000000  0.0000000 -1.0000000 )


      isym =  7      90 deg rotation - cart. axis [0,0,-1]       

 cryst.   s( 7) = (     0         -1          0      )
                  (     1          0          0      )
                  (     0          0          1      )

 cart.    s( 7) = (  0.0000000  1.0000000  0.0000000 )
                  ( -1.0000000  0.0000000  0.0000000 )
                  (  0.0000000  0.0000000  1.0000000 )


      isym =  8      90 deg rotation - cart. axis [0,0,1]        

 cryst.   s( 8) = (     0          1          0      )
                  (    -1          0          0      )
                  (     0          0          1      )

 cart.    s( 8) = (  0.0000000 -1.0000000  0.0000000 )
                  (  1.0000000  0.0000000  0.0000000 )
                  (  0.0000000  0.0000000  1.0000000 )


      isym =  9     inversion                                    

 cryst.   s( 9) = (    -1          0          0      )
                  (     0         -1          0      )
                  (     0          0         -1      )

 cart.    s( 9) = ( -1.0000000  0.0000000  0.0000000 )
                  (  0.0000000 -1.0000000  0.0000000 )
                  (  0.0000000  0.0000000 -1.0000000 )


      isym = 10     inv. 180 deg rotation - cart. axis [0,0,1]   

 cryst.   s(10) = (     1          0          0      )
                  (     0          1          0      )
                  (     0          0         -1      )

 cart.    s(10) = (  1.0000000  0.0000000  0.0000000 )
                  (  0.0000000  1.0000000  0.0000000 )
                  (  0.0000000  0.0000000 -1.0000000 )


      isym = 11     inv. 180 deg rotation - cart. axis [0,1,0]   

 cryst.   s(11) = (     1          0          0      )
                  (     0         -1          0      )
                  (     0          0          1      )

 cart.    s(11) = (  1.0000000  0.0000000  0.0000000 )
                  (  0.0000000 -1.0000000  0.0000000 )
                  (  0.0000000  0.0000000  1.0000000 )


      isym = 12     inv. 180 deg rotation - cart. axis [1,0,0]   

 cryst.   s(12) = (    -1          0          0      )
                  (     0          1          0      )
                  (     0          0          1      )

 cart.    s(12) = ( -1.0000000  0.0000000  0.0000000 )
                  (  0.0000000  1.0000000  0.0000000 )
                  (  0.0000000  0.0000000  1.0000000 )


      isym = 13     inv. 180 deg rotation - cart. axis [1,1,0]   

 cryst.   s(13) = (     0         -1          0      )
                  (    -1          0          0      )
                  (     0          0          1      )

 cart.    s(13) = (  0.0000000 -1.0000000  0.0000000 )
                  ( -1.0000000  0.0000000  0.0000000 )
                  (  0.0000000  0.0000000  1.0000000 )


      isym = 14     inv. 180 deg rotation - cart. axis [1,-1,0]  

 cryst.   s(14) = (     0          1          0      )
                  (     1          0          0      )
                  (     0          0          1      )

 cart.    s(14) = (  0.0000000  1.0000000  0.0000000 )
                  (  1.0000000  0.0000000  0.0000000 )
                  (  0.0000000  0.0000000  1.0000000 )


      isym = 15     inv.  90 deg rotation - cart. axis [0,0,-1]  

 cryst.   s(15) = (     0          1          0      )
                  (    -1          0          0      )
                  (     0          0         -1      )

 cart.    s(15) = (  0.0000000 -1.0000000  0.0000000 )
                  (  1.0000000  0.0000000  0.0000000 )
                  (  0.0000000  0.0000000 -1.0000000 )


      isym = 16     inv.  90 deg rotation - cart. axis [0,0,1]   

 cryst.   s(16) = (     0         -1          0      )
                  (     1          0          0      )
                  (     0          0         -1      )

 cart.    s(16) = (  0.0000000  1.0000000  0.0000000 )
                  ( -1.0000000  0.0000000  0.0000000 )
                  (  0.0000000  0.0000000 -1.0000000 )


     point group D_4h(4/mmm)
     there are 10 classes
     the character table:

       E     2C4   C2    2C2'  2C2'' i     2S4   s_h   2s_v  2s_d 
A_1g   1.00  1.00  1.00  1.00  1.00  1.00  1.00  1.00  1.00  1.00
A_2g   1.00  1.00  1.00 -1.00 -1.00  1.00  1.00  1.00 -1.00 -1.00
B_1g   1.00 -1.00  1.00  1.00 -1.00  1.00 -1.00  1.00  1.00 -1.00
B_2g   1.00 -1.00  1.00 -1.00  1.00  1.00 -1.00  1.00 -1.00  1.00
E_g    2.00  0.00 -2.00  0.00  0.00  2.00  0.00 -2.00  0.00  0.00
A_1u   1.00  1.00  1.00  1.00  1.00 -1.00 -1.00 -1.00 -1.00 -1.00
A_2u   1.00  1.00  1.00 -1.00 -1.00 -1.00 -1.00 -1.00  1.00  1.00
B_1u   1.00 -1.00  1.00  1.00 -1.00 -1.00  1.00 -1.00 -1.00  1.00
B_2u   1.00 -1.00  1.00 -1.00  1.00 -1.00  1.00 -1.00  1.00 -1.00
E_u    2.00  0.00 -2.00  0.00  0.00 -2.00  0.00  2.00  0.00  0.00

     the symmetry operations in each class and the name of the first element:

     E        1
          identity                                               
     2C4      7    8
           90 deg rotation - cart. axis [0,0,-1]                 
     C2       2
          180 deg rotation - cart. axis [0,0,1]                  
     2C2'     3    4
          180 deg rotation - cart. axis [0,1,0]                  
     2C2''    5    6
          180 deg rotation - cart. axis [1,1,0]                  
     i        9
          inversion                                              
     2S4     15   16
          inv.  90 deg rotation - cart. axis [0,0,-1]            
     s_h     10
          inv. 180 deg rotation - cart. axis [0,0,1]             
     2s_v    11   12
          inv. 180 deg rotation - cart. axis [0,1,0]             
     2s_d    13   14
          inv. 180 deg rotation - cart. axis [1,1,0]             

   Cartesian axes

     site n.     atom                  positions (alat units)
         1        La     tau(   1) = (   0.0000000   0.0000000   1.2514380  )
         2        La     tau(   2) = (   0.5000000   0.5000000   0.4823839  )
         3        La     tau(   3) = (   0.5000000   0.5000000   2.9852599  )
         4        La     tau(   4) = (   0.0000000   0.0000000   2.2162058  )
         5        Cu     tau(   5) = (   0.0000000   0.0000000   0.0000000  )
         6        Cu     tau(   6) = (   0.5000000   0.5000000   1.7338219  )
         7        O      tau(   7) = (   0.0000000   0.5000000   0.0000000  )
         8        O      tau(   8) = (   0.5000000   0.0000000   0.0000000  )
         9        O      tau(   9) = (   0.0000000   0.0000000   0.6457793  )
        10        O      tau(  10) = (   0.5000000   0.5000000   1.0880426  )
        11        O      tau(  11) = (   0.5000000   0.0000000   1.7338219  )
        12        O      tau(  12) = (   0.0000000   0.5000000   1.7338219  )
        13        O      tau(  13) = (   0.5000000   0.5000000   2.3796012  )
        14        O      tau(  14) = (   0.0000000   0.0000000   2.8218645  )

   Crystallographic axes

     site n.     atom                  positions (cryst. coord.)
         1        La     tau(   1) = (  0.0000000  0.0000000  0.3608900  )
         2        La     tau(   2) = (  0.5000000  0.5000000  0.1391100  )
         3        La     tau(   3) = (  0.5000000  0.5000000  0.8608900  )
         4        La     tau(   4) = (  0.0000000  0.0000000  0.6391100  )
         5        Cu     tau(   5) = (  0.0000000  0.0000000  0.0000000  )
         6        Cu     tau(   6) = (  0.5000000  0.5000000  0.5000000  )
         7        O      tau(   7) = (  0.0000000  0.5000000  0.0000000  )
         8        O      tau(   8) = (  0.5000000  0.0000000  0.0000000  )
         9        O      tau(   9) = (  0.0000000  0.0000000  0.1862300  )
        10        O      tau(  10) = (  0.5000000  0.5000000  0.3137700  )
        11        O      tau(  11) = (  0.5000000  0.0000000  0.5000000  )
        12        O      tau(  12) = (  0.0000000  0.5000000  0.5000000  )
        13        O      tau(  13) = (  0.5000000  0.5000000  0.6862300  )
        14        O      tau(  14) = (  0.0000000  0.0000000  0.8137700  )

     number of k points=    40 (tetrahedron method)
                       cart. coord. in units 2pi/alat
        k(    1) = (   0.0625000   0.0625000   0.0180238), wk =   0.0312500
        k(    2) = (   0.0625000   0.0625000   0.0540713), wk =   0.0312500
        k(    3) = (   0.0625000   0.0625000   0.0901188), wk =   0.0312500
        k(    4) = (   0.0625000   0.0625000   0.1261664), wk =   0.0312500
        k(    5) = (   0.0625000   0.1875000   0.0180238), wk =   0.0625000
        k(    6) = (   0.0625000   0.1875000   0.0540713), wk =   0.0625000
        k(    7) = (   0.0625000   0.1875000   0.0901188), wk =   0.0625000
        k(    8) = (   0.0625000   0.1875000   0.1261664), wk =   0.0625000
        k(    9) = (   0.0625000   0.3125000   0.0180238), wk =   0.0625000
        k(   10) = (   0.0625000   0.3125000   0.0540713), wk =   0.0625000
        k(   11) = (   0.0625000   0.3125000   0.0901188), wk =   0.0625000
        k(   12) = (   0.0625000   0.3125000   0.1261664), wk =   0.0625000
        k(   13) = (   0.0625000   0.4375000   0.0180238), wk =   0.0625000
        k(   14) = (   0.0625000   0.4375000   0.0540713), wk =   0.0625000
        k(   15) = (   0.0625000   0.4375000   0.0901188), wk =   0.0625000
        k(   16) = (   0.0625000   0.4375000   0.1261664), wk =   0.0625000
        k(   17) = (   0.1875000   0.1875000   0.0180238), wk =   0.0312500
        k(   18) = (   0.1875000   0.1875000   0.0540713), wk =   0.0312500
        k(   19) = (   0.1875000   0.1875000   0.0901188), wk =   0.0312500
        k(   20) = (   0.1875000   0.1875000   0.1261664), wk =   0.0312500
        k(   21) = (   0.1875000   0.3125000   0.0180238), wk =   0.0625000
        k(   22) = (   0.1875000   0.3125000   0.0540713), wk =   0.0625000
        k(   23) = (   0.1875000   0.3125000   0.0901188), wk =   0.0625000
        k(   24) = (   0.1875000   0.3125000   0.1261664), wk =   0.0625000
        k(   25) = (   0.1875000   0.4375000   0.0180238), wk =   0.0625000
        k(   26) = (   0.1875000   0.4375000   0.0540713), wk =   0.0625000
        k(   27) = (   0.1875000   0.4375000   0.0901188), wk =   0.0625000
        k(   28) = (   0.1875000   0.4375000   0.1261664), wk =   0.0625000
        k(   29) = (   0.3125000   0.3125000   0.0180238), wk =   0.0312500
        k(   30) = (   0.3125000   0.3125000   0.0540713), wk =   0.0312500
        k(   31) = (   0.3125000   0.3125000   0.0901188), wk =   0.0312500
        k(   32) = (   0.3125000   0.3125000   0.1261664), wk =   0.0312500
        k(   33) = (   0.3125000   0.4375000   0.0180238), wk =   0.0625000
        k(   34) = (   0.3125000   0.4375000   0.0540713), wk =   0.0625000
        k(   35) = (   0.3125000   0.4375000   0.0901188), wk =   0.0625000
        k(   36) = (   0.3125000   0.4375000   0.1261664), wk =   0.0625000
        k(   37) = (   0.4375000   0.4375000   0.0180238), wk =   0.0312500
        k(   38) = (   0.4375000   0.4375000   0.0540713), wk =   0.0312500
        k(   39) = (   0.4375000   0.4375000   0.0901188), wk =   0.0312500
        k(   40) = (   0.4375000   0.4375000   0.1261664), wk =   0.0312500

                       cryst. coord.
        k(    1) = (   0.0625000   0.0625000   0.0625000), wk =   0.0312500
        k(    2) = (   0.0625000   0.0625000   0.1875000), wk =   0.0312500
        k(    3) = (   0.0625000   0.0625000   0.3125000), wk =   0.0312500
        k(    4) = (   0.0625000   0.0625000   0.4375000), wk =   0.0312500
        k(    5) = (   0.0625000   0.1875000   0.0625000), wk =   0.0625000
        k(    6) = (   0.0625000   0.1875000   0.1875000), wk =   0.0625000
        k(    7) = (   0.0625000   0.1875000   0.3125000), wk =   0.0625000
        k(    8) = (   0.0625000   0.1875000   0.4375000), wk =   0.0625000
        k(    9) = (   0.0625000   0.3125000   0.0625000), wk =   0.0625000
        k(   10) = (   0.0625000   0.3125000   0.1875000), wk =   0.0625000
        k(   11) = (   0.0625000   0.3125000   0.3125000), wk =   0.0625000
        k(   12) = (   0.0625000   0.3125000   0.4375000), wk =   0.0625000
        k(   13) = (   0.0625000   0.4375000   0.0625000), wk =   0.0625000
        k(   14) = (   0.0625000   0.4375000   0.1875000), wk =   0.0625000
        k(   15) = (   0.0625000   0.4375000   0.3125000), wk =   0.0625000
        k(   16) = (   0.0625000   0.4375000   0.4375000), wk =   0.0625000
        k(   17) = (   0.1875000   0.1875000   0.0625000), wk =   0.0312500
        k(   18) = (   0.1875000   0.1875000   0.1875000), wk =   0.0312500
        k(   19) = (   0.1875000   0.1875000   0.3125000), wk =   0.0312500
        k(   20) = (   0.1875000   0.1875000   0.4375000), wk =   0.0312500
        k(   21) = (   0.1875000   0.3125000   0.0625000), wk =   0.0625000
        k(   22) = (   0.1875000   0.3125000   0.1875000), wk =   0.0625000
        k(   23) = (   0.1875000   0.3125000   0.3125000), wk =   0.0625000
        k(   24) = (   0.1875000   0.3125000   0.4375000), wk =   0.0625000
        k(   25) = (   0.1875000   0.4375000   0.0625000), wk =   0.0625000
        k(   26) = (   0.1875000   0.4375000   0.1875000), wk =   0.0625000
        k(   27) = (   0.1875000   0.4375000   0.3125000), wk =   0.0625000
        k(   28) = (   0.1875000   0.4375000   0.4375000), wk =   0.0625000
        k(   29) = (   0.3125000   0.3125000   0.0625000), wk =   0.0312500
        k(   30) = (   0.3125000   0.3125000   0.1875000), wk =   0.0312500
        k(   31) = (   0.3125000   0.3125000   0.3125000), wk =   0.0312500
        k(   32) = (   0.3125000   0.3125000   0.4375000), wk =   0.0312500
        k(   33) = (   0.3125000   0.4375000   0.0625000), wk =   0.0625000
        k(   34) = (   0.3125000   0.4375000   0.1875000), wk =   0.0625000
        k(   35) = (   0.3125000   0.4375000   0.3125000), wk =   0.0625000
        k(   36) = (   0.3125000   0.4375000   0.4375000), wk =   0.0625000
        k(   37) = (   0.4375000   0.4375000   0.0625000), wk =   0.0312500
        k(   38) = (   0.4375000   0.4375000   0.1875000), wk =   0.0312500
        k(   39) = (   0.4375000   0.4375000   0.3125000), wk =   0.0312500
        k(   40) = (   0.4375000   0.4375000   0.4375000), wk =   0.0312500

     Dense  grid:   423481 G-vectors     FFT dimensions: (  64,  64, 216)

     Smooth grid:   149831 G-vectors     FFT dimensions: (  45,  45, 160)

     Dynamical RAM for                 wfc:       6.43 MB

     Dynamical RAM for     wfc (w. buffer):       6.43 MB

     Dynamical RAM for           str. fact:       4.85 MB

     Dynamical RAM for           local pot:       0.00 MB

     Dynamical RAM for          nlocal pot:      16.28 MB

     Dynamical RAM for                qrad:      15.50 MB

     Dynamical RAM for          rho,v,vnew:       9.91 MB

     Dynamical RAM for           G-vectors:       6.34 MB

     Dynamical RAM for          h,s,v(r/c):       1.48 MB

     Dynamical RAM for          <psi|beta>:       0.31 MB

     Dynamical RAM for                 psi:      12.85 MB

     Dynamical RAM for                hpsi:      12.85 MB

     Dynamical RAM for                spsi:      12.85 MB

     Dynamical RAM for      wfcinit/wfcrot:      18.95 MB

     Dynamical RAM for           addusdens:     909.45 MB

     Estimated static dynamical RAM per process >      74.20 MB

     Estimated max dynamical RAM per process >     983.65 MB

     Estimated total dynamical RAM >       3.84 GB

     The potential is recalculated from file :
     ./La2CuO4/La2CuO4.save/charge-density

     Starting wfcs are  130 randomized atomic wfcs
     Checking if some PAW data can be deallocated... 
       PAW data deallocated on    3 nodes for type:  1

     Band Structure Calculation
     Davidson diagonalization with overlap

     Computing kpt #:     1  of    40
     total cpu time spent up to now is       11.8 secs

     Computing kpt #:     2  of    40
     total cpu time spent up to now is       21.6 secs

     Computing kpt #:     3  of    40
     total cpu time spent up to now is       32.9 secs

     Computing kpt #:     4  of    40
     total cpu time spent up to now is       44.1 secs

     Computing kpt #:     5  of    40
     c_bands:  2 eigenvalues not converged
     total cpu time spent up to now is       55.3 secs

     Computing kpt #:     6  of    40
     c_bands:  2 eigenvalues not converged
     total cpu time spent up to now is       66.8 secs

     Computing kpt #:     7  of    40
     c_bands:  2 eigenvalues not converged
     total cpu time spent up to now is       78.1 secs

     Computing kpt #:     8  of    40
     c_bands:  2 eigenvalues not converged
     total cpu time spent up to now is       89.4 secs

     Computing kpt #:     9  of    40
     c_bands:  1 eigenvalues not converged
     total cpu time spent up to now is       99.7 secs

     Computing kpt #:    10  of    40
     c_bands:  1 eigenvalues not converged
     total cpu time spent up to now is      110.1 secs

     Computing kpt #:    11  of    40
     c_bands:  1 eigenvalues not converged
     total cpu time spent up to now is      120.5 secs

     Computing kpt #:    12  of    40
     c_bands:  1 eigenvalues not converged
     total cpu time spent up to now is      130.9 secs

     Computing kpt #:    13  of    40
     c_bands:  2 eigenvalues not converged
     total cpu time spent up to now is      141.3 secs

     Computing kpt #:    14  of    40
     total cpu time spent up to now is      151.0 secs

     Computing kpt #:    15  of    40
     total cpu time spent up to now is      161.1 secs

     Computing kpt #:    16  of    40
     total cpu time spent up to now is      171.1 secs

     Computing kpt #:    17  of    40
     total cpu time spent up to now is      180.7 secs

     Computing kpt #:    18  of    40
     c_bands:  1 eigenvalues not converged
     total cpu time spent up to now is      191.6 secs

     Computing kpt #:    19  of    40
     total cpu time spent up to now is      202.4 secs

     Computing kpt #:    20  of    40
     c_bands:  1 eigenvalues not converged
     total cpu time spent up to now is      213.6 secs

     Computing kpt #:    21  of    40
     total cpu time spent up to now is      223.0 secs

     Computing kpt #:    22  of    40
     total cpu time spent up to now is      232.8 secs

     Computing kpt #:    23  of    40
     total cpu time spent up to now is      243.2 secs

     Computing kpt #:    24  of    40
     total cpu time spent up to now is      254.0 secs

     Computing kpt #:    25  of    40
     c_bands:  1 eigenvalues not converged
     total cpu time spent up to now is      264.3 secs

     Computing kpt #:    26  of    40
     c_bands:  2 eigenvalues not converged
     total cpu time spent up to now is      274.6 secs

     Computing kpt #:    27  of    40
     c_bands:  1 eigenvalues not converged
     total cpu time spent up to now is      284.9 secs

     Computing kpt #:    28  of    40
     c_bands:  2 eigenvalues not converged
     total cpu time spent up to now is      295.4 secs

     Computing kpt #:    29  of    40
     c_bands:  2 eigenvalues not converged
     total cpu time spent up to now is      305.8 secs

     Computing kpt #:    30  of    40
     c_bands:  2 eigenvalues not converged
     total cpu time spent up to now is      316.2 secs

     Computing kpt #:    31  of    40
     c_bands:  2 eigenvalues not converged
     total cpu time spent up to now is      326.5 secs

     Computing kpt #:    32  of    40
     c_bands:  2 eigenvalues not converged
     total cpu time spent up to now is      337.1 secs

     Computing kpt #:    33  of    40
     total cpu time spent up to now is      345.6 secs

     Computing kpt #:    34  of    40
     total cpu time spent up to now is      354.4 secs

     Computing kpt #:    35  of    40
     total cpu time spent up to now is      363.1 secs

     Computing kpt #:    36  of    40
     total cpu time spent up to now is      372.0 secs

     Computing kpt #:    37  of    40
     total cpu time spent up to now is      379.9 secs

     Computing kpt #:    38  of    40
     total cpu time spent up to now is      388.5 secs

     Computing kpt #:    39  of    40
     total cpu time spent up to now is      398.0 secs

     Computing kpt #:    40  of    40
     c_bands:  1 eigenvalues not converged
     total cpu time spent up to now is      408.2 secs

     ethr =  8.77E-12,  avg # of iterations =106.5

     total cpu time spent up to now is      408.3 secs

     End of band structure calculation

          k = 0.0625 0.0625 0.0180 ( 18707 PWs)   bands (ev):

   -19.9765 -19.9190 -19.8813 -19.8217  -7.4346  -7.3663  -6.0861  -5.8479
    -5.5497  -5.5476  -5.4077  -5.1230  -3.4743  -3.4699  -3.4192  -3.3555
    -3.2874  -3.2584  -3.2502  -3.2235  -2.7947  -2.4765  -2.3776  -1.9590
     6.5062   6.5118   6.5713   6.6156   7.0486   7.5840   7.7945   8.0389
     8.0611   8.2893   8.4549   8.5825   8.7338   8.8240   8.8532   8.8586
     9.0748   9.1457   9.1951   9.2255   9.3677   9.4362   9.4494   9.6434
     9.7366   9.7550   9.7982   9.8064   9.8793  10.2774  10.4288  10.4300
    10.4318  10.8266  12.7610  13.3671  14.0849  14.1921  14.4283  14.7231
    14.7822  14.9074  14.9371  14.9385  14.9428  14.9445  14.9697  15.0114
    15.0412  15.0758  15.0935  15.1192  15.1231  15.1543  15.1757  15.1994
    15.2116  15.2162  15.2630  15.2996  15.3149  15.3488  15.4267  15.4275
    15.4500  15.5982

     occupation numbers 
     1.0000   1.0000   1.0000   1.0000   1.0000   1.0000   1.0000   1.0000
     1.0000   1.0000   1.0000   1.0000   1.0000   1.0000   1.0000   1.0000
     1.0000   1.0000   1.0000   1.0000   1.0000   1.0000   1.0000   1.0000
     1.0000   1.0000   1.0000   1.0000   1.0000   1.0000   1.0000   1.0000
     1.0000   1.0000   1.0000   1.0000   1.0000   1.0000   1.0000   1.0000
     1.0000   1.0000   1.0000   1.0000   1.0000   1.0000   1.0000   1.0000
     1.0000   1.0000   1.0000   1.0000   1.0000   1.0000   1.0000   1.0000
     1.0000   1.0000   0.0000   0.0000   0.0000   0.0000   0.0000   0.0000
     0.0000   0.0000   0.0000   0.0000   0.0000   0.0000   0.0000   0.0000
     0.0000   0.0000   0.0000   0.0000   0.0000   0.0000   0.0000   0.0000
     0.0000   0.0000   0.0000   0.0000   0.0000   0.0000   0.0000   0.0000
     0.0000   0.0000

          k = 0.0625 0.0625 0.0541 ( 18704 PWs)   bands (ev):

   -19.9737 -19.9281 -19.8720 -19.8246  -7.4296  -7.3717  -6.0729  -5.8755
    -5.5495  -5.5478  -5.3761  -5.1392  -3.4711  -3.4663  -3.4251  -3.3730
    -3.2808  -3.2534  -3.2423  -3.2273  -2.7821  -2.5456  -2.3005  -1.9793
     6.5072   6.5118   6.5747   6.6123   7.0806   7.5292   7.8236   8.0407
     8.0595   8.2311   8.4680   8.5955   8.6892   8.8158   8.8882   8.8933
     9.0704   9.1693   9.1979   9.2740   9.3009   9.4600   9.5041   9.6293
     9.7484   9.7605   9.7806   9.8073   9.8687  10.1089  10.4300  10.4316
    10.5514  10.8191  12.7931  13.2898  14.1637  14.2205  14.4196  14.6845
    14.7952  14.9069  14.9362  14.9397  14.9421  14.9473  14.9689  15.0187
    15.0300  15.0727  15.0953  15.1174  15.1254  15.1558  15.1681  15.1885
    15.2156  15.2291  15.2571  15.2933  15.3241  15.3565  15.4117  15.4219
    15.4618  15.5864

     occupation numbers 
     1.0000   1.0000   1.0000   1.0000   1.0000   1.0000   1.0000   1.0000
     1.0000   1.0000   1.0000   1.0000   1.0000   1.0000   1.0000   1.0000
     1.0000   1.0000   1.0000   1.0000   1.0000   1.0000   1.0000   1.0000
     1.0000   1.0000   1.0000   1.0000   1.0000   1.0000   1.0000   1.0000
     1.0000   1.0000   1.0000   1.0000   1.0000   1.0000   1.0000   1.0000
     1.0000   1.0000   1.0000   1.0000   1.0000   1.0000   1.0000   1.0000
     1.0000   1.0000   1.0000   1.0000   1.0000   1.0000   1.0000   1.0000
     1.0000   1.0000   0.0000   0.0000   0.0000   0.0000   0.0000   0.0000
     0.0000   0.0000   0.0000   0.0000   0.0000   0.0000   0.0000   0.0000
     0.0000   0.0000   0.0000   0.0000   0.0000   0.0000   0.0000   0.0000
     0.0000   0.0000   0.0000   0.0000   0.0000   0.0000   0.0000   0.0000
     0.0000   0.0000

          k = 0.0625 0.0625 0.0901 ( 18700 PWs)   bands (ev):

   -19.9684 -19.9396 -19.8602 -19.8303  -7.4202  -7.3816  -6.0472  -5.9190
    -5.5492  -5.5481  -5.3254  -5.1706  -3.4650  -3.4578  -3.4348  -3.3980
    -3.2699  -3.2455  -3.2352  -3.2347  -2.7569  -2.6122  -2.2196  -2.0186
     6.5086   6.5117   6.5810   6.6061   7.1422   7.4373   7.8794   8.0439
     8.0565   8.1438   8.4942   8.6213   8.6337   8.7619   8.9305   8.9560
     9.0771   9.1936   9.2025   9.2365   9.3739   9.4846   9.5669   9.6019
     9.7528   9.7694   9.7702   9.8029   9.8491   9.9277  10.4302  10.4313
    10.6485  10.8016  12.8556  13.1751  14.2686  14.2809  14.4005  14.6144
    14.8214  14.9039  14.9350  14.9404  14.9420  14.9486  14.9682  15.0069
    15.0310  15.0664  15.0986  15.1138  15.1299  15.1563  15.1589  15.1784
    15.2222  15.2434  15.2486  15.2833  15.3387  15.3689  15.3931  15.4117
    15.4800  15.5644

     occupation numbers 
     1.0000   1.0000   1.0000   1.0000   1.0000   1.0000   1.0000   1.0000
     1.0000   1.0000   1.0000   1.0000   1.0000   1.0000   1.0000   1.0000
     1.0000   1.0000   1.0000   1.0000   1.0000   1.0000   1.0000   1.0000
     1.0000   1.0000   1.0000   1.0000   1.0000   1.0000   1.0000   1.0000
     1.0000   1.0000   1.0000   1.0000   1.0000   1.0000   1.0000   1.0000
     1.0000   1.0000   1.0000   1.0000   1.0000   1.0000   1.0000   1.0000
     1.0000   1.0000   1.0000   1.0000   1.0000   1.0000   1.0000   1.0000
     1.0000   1.0000   0.0000   0.0000   0.0000   0.0000   0.0000   0.0000
     0.0000   0.0000   0.0000   0.0000   0.0000   0.0000   0.0000   0.0000
     0.0000   0.0000   0.0000   0.0000   0.0000   0.0000   0.0000   0.0000
     0.0000   0.0000   0.0000   0.0000   0.0000   0.0000   0.0000   0.0000
     0.0000   0.0000

          k = 0.0625 0.0625 0.1262 ( 18710 PWs)   bands (ev):

   -19.9606 -19.9508 -19.8486 -19.8384  -7.4079  -7.3943  -6.0109  -5.9666
    -5.5489  -5.5484  -5.2687  -5.2151  -3.4563  -3.4458  -3.4433  -3.4228
    -3.2572  -3.2450  -3.2378  -3.2336  -2.7195  -2.6707  -2.1426  -2.0742
     6.5101   6.5112   6.5892   6.5980   7.2284   7.3310   7.9568   8.0481
     8.0482   8.0525   8.5320   8.5796   8.6590   8.7071   8.9601   8.9754
     9.1170   9.1748   9.2055   9.2066   9.5145   9.5221   9.5643   9.6048
     9.7213   9.7572   9.7853   9.7944   9.7958   9.8237  10.4303  10.4310
    10.7205  10.7702  12.9447  13.0544  14.3222  14.3682  14.4050  14.5193
    14.8577  14.8900  14.9346  14.9370  14.9448  14.9474  14.9702  14.9817
    15.0447  15.0569  15.1032  15.1087  15.1363  15.1450  15.1636  15.1701
    15.2303  15.2393  15.2576  15.2711  15.3559  15.3742  15.3834  15.3982
    15.5058  15.5358

     occupation numbers 
     1.0000   1.0000   1.0000   1.0000   1.0000   1.0000   1.0000   1.0000
     1.0000   1.0000   1.0000   1.0000   1.0000   1.0000   1.0000   1.0000
     1.0000   1.0000   1.0000   1.0000   1.0000   1.0000   1.0000   1.0000
     1.0000   1.0000   1.0000   1.0000   1.0000   1.0000   1.0000   1.0000
     1.0000   1.0000   1.0000   1.0000   1.0000   1.0000   1.0000   1.0000
     1.0000   1.0000   1.0000   1.0000   1.0000   1.0000   1.0000   1.0000
     1.0000   1.0000   1.0000   1.0000   1.0000   1.0000   1.0000   1.0000
     1.0000   1.0000   0.0000   0.0000   0.0000   0.0000   0.0000   0.0000
     0.0000   0.0000   0.0000   0.0000   0.0000   0.0000   0.0000   0.0000
     0.0000   0.0000   0.0000   0.0000   0.0000   0.0000   0.0000   0.0000
     0.0000   0.0000   0.0000   0.0000   0.0000   0.0000   0.0000   0.0000
     0.0000   0.0000

          k = 0.0625 0.1875 0.0180 ( 18701 PWs)   bands (ev):

   -19.9499 -19.8947 -19.8681 -19.8113  -7.2973  -7.2870  -6.1183  -6.0916
    -5.7302  -5.6131  -5.5972  -5.2393  -3.4720  -3.4631  -3.4511  -3.3964
    -3.3159  -3.2649  -3.2157  -3.0702  -2.6606  -2.3508  -2.2314  -2.0507
     6.1092   6.1930   6.6393   6.6531   6.9154   7.3953   7.8254   7.9429
     7.9514   7.9995   8.2244   8.2496   8.3654   8.6781   8.7035   8.8561
     8.9599   8.9604   9.0594   9.1012   9.3049   9.4250   9.4267   9.4912
     9.6534   9.7892   9.9019  10.0306  10.0335  10.3329  10.4487  10.6674
    11.0551  11.2910  13.3282  13.7018  14.3342  14.4244  14.4841  14.7345
    14.8993  14.9305  14.9402  14.9494  14.9731  14.9862  15.0010  15.0417
    15.0922  15.1096  15.1108  15.1180  15.1306  15.1403  15.1716  15.2053
    15.2241  15.2439  15.2601  15.3297  15.3714  15.3726  15.4329  15.4416
    15.8575  15.9140

     occupation numbers 
     1.0000   1.0000   1.0000   1.0000   1.0000   1.0000   1.0000   1.0000
     1.0000   1.0000   1.0000   1.0000   1.0000   1.0000   1.0000   1.0000
     1.0000   1.0000   1.0000   1.0000   1.0000   1.0000   1.0000   1.0000
     1.0000   1.0000   1.0000   1.0000   1.0000   1.0000   1.0000   1.0000
     1.0000   1.0000   1.0000   1.0000   1.0000   1.0000   1.0000   1.0000
     1.0000   1.0000   1.0000   1.0000   1.0000   1.0000   1.0000   1.0000
     1.0000   1.0000   1.0000   1.0000   1.0000   1.0000   1.0000   1.0000
     1.0169   1.0200   0.0000   0.0000   0.0000   0.0000   0.0000   0.0000
     0.0000   0.0000   0.0000   0.0000   0.0000   0.0000   0.0000   0.0000
     0.0000   0.0000   0.0000   0.0000   0.0000   0.0000   0.0000   0.0000
     0.0000   0.0000   0.0000   0.0000   0.0000   0.0000   0.0000   0.0000
     0.0000   0.0000

          k = 0.0625 0.1875 0.0541 ( 18701 PWs)   bands (ev):

   -19.9474 -19.9044 -19.8584 -19.8139  -7.2962  -7.2875  -6.1221  -6.1008
    -5.7183  -5.6134  -5.5735  -5.2662  -3.4620  -3.4589  -3.4276  -3.4012
    -3.3374  -3.2515  -3.2148  -3.1059  -2.6326  -2.3845  -2.2029  -2.0596
     6.1161   6.1872   6.6402   6.6519   6.9450   7.3487   7.8505   7.9346
     7.9409   8.0200   8.2022   8.2269   8.3861   8.6833   8.7237   8.7761
     8.9415   9.0029   9.0869   9.1496   9.3085   9.4074   9.4240   9.5025
     9.6612   9.7802   9.9049  10.0315  10.0344  10.2147  10.5299  10.6642
    11.0784  11.2776  13.3513  13.6643  14.3504  14.4545  14.4775  14.7139
    14.8998  14.9277  14.9476  14.9524  14.9739  14.9830  15.0223  15.0433
    15.0854  15.1054  15.1112  15.1212  15.1319  15.1456  15.1710  15.2034
    15.2203  15.2417  15.2684  15.3347  15.3661  15.3726  15.4162  15.4288
    15.8599  15.9270

     occupation numbers 
     1.0000   1.0000   1.0000   1.0000   1.0000   1.0000   1.0000   1.0000
     1.0000   1.0000   1.0000   1.0000   1.0000   1.0000   1.0000   1.0000
     1.0000   1.0000   1.0000   1.0000   1.0000   1.0000   1.0000   1.0000
     1.0000   1.0000   1.0000   1.0000   1.0000   1.0000   1.0000   1.0000
     1.0000   1.0000   1.0000   1.0000   1.0000   1.0000   1.0000   1.0000
     1.0000   1.0000   1.0000   1.0000   1.0000   1.0000   1.0000   1.0000
     1.0000   1.0000   1.0000   1.0000   1.0000   1.0000   1.0000   1.0000
     1.0171   1.0197   0.0000   0.0000   0.0000   0.0000   0.0000   0.0000
     0.0000   0.0000   0.0000   0.0000   0.0000   0.0000   0.0000   0.0000
     0.0000   0.0000   0.0000   0.0000   0.0000   0.0000   0.0000   0.0000
     0.0000   0.0000   0.0000   0.0000   0.0000   0.0000   0.0000   0.0000
     0.0000   0.0000

          k = 0.0625 0.1875 0.0901 ( 18700 PWs)   bands (ev):

   -19.9424 -19.9156 -19.8469 -19.8191  -7.2944  -7.2885  -6.1267  -6.1137
    -5.6977  -5.6276  -5.5194  -5.3157  -3.4510  -3.4464  -3.4119  -3.3787
    -3.3649  -3.2410  -3.2139  -3.1629  -2.5876  -2.4311  -2.1671  -2.0770
     6.1287   6.1762   6.6420   6.6498   7.0018   7.2685   7.8938   7.9226
     7.9419   8.0439   8.1543   8.1898   8.4281   8.6385   8.7550   8.7558
     8.9259   8.9845   9.1559   9.2171   9.3098   9.3869   9.4242   9.4987
     9.6796   9.7622   9.9158  10.0318  10.0358  10.0997  10.5869  10.6571
    11.1190  11.2512  13.3955  13.6014  14.3778  14.4599  14.5082  14.6756
    14.9050  14.9236  14.9549  14.9563  14.9750  14.9801  15.0444  15.0587
    15.0743  15.1007  15.1166  15.1262  15.1317  15.1533  15.1694  15.1986
    15.2162  15.2332  15.2820  15.3432  15.3507  15.3763  15.3853  15.4146
    15.8654  15.8956

     occupation numbers 
     1.0000   1.0000   1.0000   1.0000   1.0000   1.0000   1.0000   1.0000
     1.0000   1.0000   1.0000   1.0000   1.0000   1.0000   1.0000   1.0000
     1.0000   1.0000   1.0000   1.0000   1.0000   1.0000   1.0000   1.0000
     1.0000   1.0000   1.0000   1.0000   1.0000   1.0000   1.0000   1.0000
     1.0000   1.0000   1.0000   1.0000   1.0000   1.0000   1.0000   1.0000
     1.0000   1.0000   1.0000   1.0000   1.0000   1.0000   1.0000   1.0000
     1.0000   1.0000   1.0000   1.0000   1.0000   1.0000   1.0000   1.0000
     1.0175   1.0192   0.0000   0.0000   0.0000   0.0000   0.0000   0.0000
     0.0000   0.0000   0.0000   0.0000   0.0000   0.0000   0.0000   0.0000
     0.0000   0.0000   0.0000   0.0000   0.0000   0.0000   0.0000   0.0000
     0.0000   0.0000   0.0000   0.0000   0.0000   0.0000   0.0000   0.0000
     0.0000   0.0000

          k = 0.0625 0.1875 0.1262 ( 18699 PWs)   bands (ev):

   -19.9352 -19.9262 -19.8360 -19.8266  -7.2922  -7.2901  -6.1281  -6.1238
    -5.6730  -5.6485  -5.4514  -5.3803  -3.4409  -3.4337  -3.4140  -3.3927
    -3.3174  -3.2560  -3.2139  -3.2091  -2.5357  -2.4826  -2.1323  -2.1017
     6.1447   6.1614   6.6445   6.6472   7.0807   7.1736   7.9173   7.9186
     7.9793   8.0389   8.1220   8.1491   8.4873   8.5600   8.7725   8.7775
     8.9272   8.9517   9.2180   9.2521   9.3250   9.3621   9.4385   9.4710
     9.7071   9.7367   9.9441   9.9999  10.0372  10.0399  10.6229  10.6444
    11.1671  11.2133  13.4565  13.5281  14.4090  14.4377  14.5669  14.6249
    14.9122  14.9185  14.9593  14.9594  14.9761  14.9777  15.0521  15.0624
    15.0848  15.0951  15.1262  15.1299  15.1457  15.1605  15.1660  15.1817
    15.2148  15.2198  15.2998  15.3238  15.3532  15.3649  15.3849  15.3987
    15.8743  15.8851

     occupation numbers 
     1.0000   1.0000   1.0000   1.0000   1.0000   1.0000   1.0000   1.0000
     1.0000   1.0000   1.0000   1.0000   1.0000   1.0000   1.0000   1.0000
     1.0000   1.0000   1.0000   1.0000   1.0000   1.0000   1.0000   1.0000
     1.0000   1.0000   1.0000   1.0000   1.0000   1.0000   1.0000   1.0000
     1.0000   1.0000   1.0000   1.0000   1.0000   1.0000   1.0000   1.0000
     1.0000   1.0000   1.0000   1.0000   1.0000   1.0000   1.0000   1.0000
     1.0000   1.0000   1.0000   1.0000   1.0000   1.0000   1.0000   1.0000
     1.0177   1.0188   0.0000   0.0000   0.0000   0.0000   0.0000   0.0000
     0.0000   0.0000   0.0000   0.0000   0.0000   0.0000   0.0000   0.0000
     0.0000   0.0000   0.0000   0.0000   0.0000   0.0000   0.0000   0.0000
     0.0000   0.0000   0.0000   0.0000   0.0000   0.0000   0.0000   0.0000
     0.0000   0.0000

          k = 0.0625 0.3125 0.0180 ( 18702 PWs)   bands (ev):

   -19.9088 -19.8601 -19.8493 -19.7996  -7.1908  -7.0212  -6.4901  -6.1805
    -6.0007  -5.8869  -5.5650  -5.3718  -3.6318  -3.5054  -3.4237  -3.2869
    -3.2866  -3.2554  -3.1956  -2.9625  -2.4720  -2.2032  -2.1428  -2.1194
     5.6045   5.6868   6.7416   6.7506   6.7876   7.0615   7.5290   7.6535
     7.8569   7.9075   7.9129   8.1125   8.2386   8.4518   8.5164   8.5739
     8.7831   8.8404   8.9795   9.0318   9.1180   9.1540   9.2417   9.4632
     9.7169   9.7853  10.3203  10.3534  10.3664  10.4706  10.5319  10.6853
    11.5332  11.7402  14.1094  14.1896  14.4895  14.5503  14.6979  14.7259
    14.9433  14.9610  14.9632  14.9783  15.0251  15.0316  15.0708  15.0815
    15.0936  15.1051  15.1211  15.1221  15.1345  15.1393  15.1568  15.1918
    15.2138  15.2243  15.2393  15.2991  15.3323  15.4164  15.5847  15.7332
    16.1071  16.3966

     occupation numbers 
     1.0000   1.0000   1.0000   1.0000   1.0000   1.0000   1.0000   1.0000
     1.0000   1.0000   1.0000   1.0000   1.0000   1.0000   1.0000   1.0000
     1.0000   1.0000   1.0000   1.0000   1.0000   1.0000   1.0000   1.0000
     1.0000   1.0000   1.0000   1.0000   1.0000   1.0000   1.0000   1.0000
     1.0000   1.0000   1.0000   1.0000   1.0000   1.0000   1.0000   1.0000
     1.0000   1.0000   1.0000   1.0000   1.0000   1.0000   1.0000   1.0000
     1.0000   1.0000   1.0000   1.0000   1.0000   1.0000   1.0000   1.0000
     1.0217   0.9746   0.0000   0.0000   0.0000   0.0000   0.0000   0.0000
     0.0000   0.0000   0.0000   0.0000   0.0000   0.0000   0.0000   0.0000
     0.0000   0.0000   0.0000   0.0000   0.0000   0.0000   0.0000   0.0000
     0.0000   0.0000   0.0000   0.0000   0.0000   0.0000   0.0000   0.0000
     0.0000   0.0000

          k = 0.0625 0.3125 0.0541 ( 18696 PWs)   bands (ev):

   -19.9067 -19.8706 -19.8388 -19.8018  -7.1797  -7.0362  -6.4804  -6.2416
    -5.9320  -5.8473  -5.5874  -5.4138  -3.5901  -3.4959  -3.4172  -3.3105
    -3.3002  -3.2339  -3.1915  -3.0223  -2.4349  -2.2171  -2.1398  -2.1208
     5.6112   5.6809   6.7430   6.7758   6.7837   7.0403   7.5365   7.6451
     7.8471   7.8608   7.9226   8.1643   8.2539   8.4642   8.5134   8.5903
     8.7459   8.7525   8.9778   9.0258   9.1460   9.1655   9.3025   9.4773
     9.7103   9.7709  10.3191  10.3582  10.3638  10.4362  10.5624  10.6780
    11.5504  11.7255  14.1174  14.1854  14.4973  14.5498  14.6951  14.7207
    14.9389  14.9563  14.9698  14.9844  15.0274  15.0307  15.0691  15.0759
    15.0954  15.1048  15.1214  15.1218  15.1386  15.1530  15.1580  15.1910
    15.2137  15.2260  15.2448  15.2959  15.3253  15.3985  15.5961  15.7187
    16.1315  16.3749

     occupation numbers 
     1.0000   1.0000   1.0000   1.0000   1.0000   1.0000   1.0000   1.0000
     1.0000   1.0000   1.0000   1.0000   1.0000   1.0000   1.0000   1.0000
     1.0000   1.0000   1.0000   1.0000   1.0000   1.0000   1.0000   1.0000
     1.0000   1.0000   1.0000   1.0000   1.0000   1.0000   1.0000   1.0000
     1.0000   1.0000   1.0000   1.0000   1.0000   1.0000   1.0000   1.0000
     1.0000   1.0000   1.0000   1.0000   1.0000   1.0000   1.0000   1.0000
     1.0000   1.0000   1.0000   1.0000   1.0000   1.0000   1.0000   1.0000
     1.0192   0.9798   0.0000   0.0000   0.0000   0.0000   0.0000   0.0000
     0.0000   0.0000   0.0000   0.0000   0.0000   0.0000   0.0000   0.0000
     0.0000   0.0000   0.0000   0.0000   0.0000   0.0000   0.0000   0.0000
     0.0000   0.0000   0.0000   0.0000   0.0000   0.0000   0.0000   0.0000
     0.0000   0.0000

          k = 0.0625 0.3125 0.0901 ( 18699 PWs)   bands (ev):

   -19.9027 -19.8804 -19.8288 -19.8059  -7.1585  -7.0630  -6.4585  -6.3105
    -5.8486  -5.7760  -5.6303  -5.4886  -3.5228  -3.4802  -3.4013  -3.3334
    -3.3164  -3.2146  -3.1887  -3.1178  -2.3813  -2.2432  -2.1355  -2.1234
     5.6233   5.6699   6.7490   6.7765   6.8196   6.9983   7.5513   7.6261
     7.8199   7.8296   7.9615   8.1557   8.3223   8.4816   8.5090   8.6186
     8.6357   8.7164   8.9649   9.0374   9.1433   9.1666   9.3999   9.4974
     9.7005   9.7444  10.3202  10.3556  10.3657  10.4048  10.5929  10.6641
    11.5814  11.6981  14.1313  14.1769  14.5107  14.5467  14.6928  14.7117
    14.9369  14.9490  14.9801  14.9897  15.0294  15.0302  15.0664  15.0686
    15.0980  15.1041  15.1215  15.1217  15.1446  15.1557  15.1743  15.1896
    15.2233  15.2300  15.2483  15.2957  15.3115  15.3664  15.6162  15.6954
    16.1740  16.3350

     occupation numbers 
     1.0000   1.0000   1.0000   1.0000   1.0000   1.0000   1.0000   1.0000
     1.0000   1.0000   1.0000   1.0000   1.0000   1.0000   1.0000   1.0000
     1.0000   1.0000   1.0000   1.0000   1.0000   1.0000   1.0000   1.0000
     1.0000   1.0000   1.0000   1.0000   1.0000   1.0000   1.0000   1.0000
     1.0000   1.0000   1.0000   1.0000   1.0000   1.0000   1.0000   1.0000
     1.0000   1.0000   1.0000   1.0000   1.0000   1.0000   1.0000   1.0000
     1.0000   1.0000   1.0000   1.0000   1.0000   1.0000   1.0000   1.0000
     1.0143   0.9884   0.0000   0.0000   0.0000   0.0000   0.0000   0.0000
     0.0000   0.0000   0.0000   0.0000   0.0000   0.0000   0.0000   0.0000
     0.0000   0.0000   0.0000   0.0000   0.0000   0.0000   0.0000   0.0000
     0.0000   0.0000   0.0000   0.0000   0.0000   0.0000   0.0000   0.0000
     0.0000   0.0000

          k = 0.0625 0.3125 0.1262 ( 18694 PWs)   bands (ev):

   -19.8968 -19.8893 -19.8197 -19.8120  -7.1295  -7.0960  -6.4225  -6.3724
    -5.7668  -5.7004  -5.6747  -5.5825  -3.4718  -3.4659  -3.3710  -3.3521
    -3.3063  -3.2255  -3.1989  -3.1910  -2.3273  -2.2803  -2.1310  -2.1269
     5.6389   5.6552   6.7577   6.7673   6.8775   6.9407   7.5731   7.5998
     7.8053   7.8121   8.0239   8.0967   8.4168   8.4921   8.5060   8.5281
     8.6530   8.6855   8.9825   9.0143   9.1495   9.1581   9.4761   9.5058
     9.6973   9.7140  10.3271  10.3408  10.3746  10.3858  10.6204  10.6445
    11.6205  11.6614  14.1480  14.1640  14.5258  14.5388  14.6947  14.7018
    14.9385  14.9428  14.9884  14.9917  15.0294  15.0307  15.0640  15.0641
    15.1007  15.1028  15.1216  15.1217  15.1501  15.1539  15.1840  15.1874
    15.2366  15.2441  15.2533  15.2881  15.3065  15.3307  15.6414  15.6685
    16.2271  16.2832

     occupation numbers 
     1.0000   1.0000   1.0000   1.0000   1.0000   1.0000   1.0000   1.0000
     1.0000   1.0000   1.0000   1.0000   1.0000   1.0000   1.0000   1.0000
     1.0000   1.0000   1.0000   1.0000   1.0000   1.0000   1.0000   1.0000
     1.0000   1.0000   1.0000   1.0000   1.0000   1.0000   1.0000   1.0000
     1.0000   1.0000   1.0000   1.0000   1.0000   1.0000   1.0000   1.0000
     1.0000   1.0000   1.0000   1.0000   1.0000   1.0000   1.0000   1.0000
     1.0000   1.0000   1.0000   1.0000   1.0000   1.0000   1.0000   1.0000
     1.0064   0.9987   0.0000   0.0000   0.0000   0.0000   0.0000   0.0000
     0.0000   0.0000   0.0000   0.0000   0.0000   0.0000   0.0000   0.0000
     0.0000   0.0000   0.0000   0.0000   0.0000   0.0000   0.0000   0.0000
     0.0000   0.0000   0.0000   0.0000   0.0000   0.0000   0.0000   0.0000
     0.0000   0.0000

          k = 0.0625 0.4375 0.0180 ( 18701 PWs)   bands (ev):

   -19.8713 -19.8526 -19.8186 -19.7995  -7.0604  -6.8698  -6.6384  -6.3339
    -6.1656  -6.0962  -5.5279  -5.4786  -3.6535  -3.5840  -3.3621  -3.2937
    -3.2319  -3.2000  -3.1596  -3.0336  -2.2962  -2.1728  -2.1122  -2.1038
     5.2895   5.3205   6.6921   6.8010   6.8916   6.9987   7.1516   7.3001
     7.8074   7.8425   7.9009   7.9959   8.2261   8.3036   8.3178   8.3391
     8.7315   8.8264   8.8583   8.8928   8.9937   8.9967   9.3532   9.4652
     9.6861   9.7254  10.4897  10.5260  10.5811  10.6623  10.6746  10.7072
    11.8100  11.8965  14.5479  14.5906  14.5958  14.6042  14.6844  14.7419
    14.9848  14.9897  15.0149  15.0244  15.0501  15.0547  15.0661  15.0721
    15.0831  15.0949  15.1049  15.1163  15.1221  15.1331  15.1594  15.1634
    15.1997  15.2257  15.2428  15.2816  15.3264  15.3778  15.9489  16.0502
    16.4173  16.4198

     occupation numbers 
     1.0000   1.0000   1.0000   1.0000   1.0000   1.0000   1.0000   1.0000
     1.0000   1.0000   1.0000   1.0000   1.0000   1.0000   1.0000   1.0000
     1.0000   1.0000   1.0000   1.0000   1.0000   1.0000   1.0000   1.0000
     1.0000   1.0000   1.0000   1.0000   1.0000   1.0000   1.0000   1.0000
     1.0000   1.0000   1.0000   1.0000   1.0000   1.0000   1.0000   1.0000
     1.0000   1.0000   1.0000   1.0000   1.0000   1.0000   1.0000   1.0000
     1.0000   1.0000   1.0000   1.0000   1.0000   1.0000   1.0000   1.0000
     0.8732   0.7895   0.0000   0.0000   0.0000   0.0000   0.0000   0.0000
     0.0000   0.0000   0.0000   0.0000   0.0000   0.0000   0.0000   0.0000
     0.0000   0.0000   0.0000   0.0000   0.0000   0.0000   0.0000   0.0000
     0.0000   0.0000   0.0000   0.0000   0.0000   0.0000   0.0000   0.0000
     0.0000   0.0000

          k = 0.0625 0.4375 0.0541 ( 18694 PWs)   bands (ev):

   -19.8702 -19.8547 -19.8165 -19.8006  -7.0453  -6.8743  -6.6565  -6.4223
    -6.0627  -6.0376  -5.5630  -5.5225  -3.6229  -3.5685  -3.3539  -3.2967
    -3.2249  -3.2120  -3.1658  -3.0709  -2.2791  -2.1744  -2.1151  -2.1059
     5.2923   5.3186   6.7060   6.8009   6.8981   6.9880   7.1589   7.2840
     7.7492   7.7595   7.9683   8.1012   8.2394   8.3152   8.3461   8.3508
     8.7060   8.7509   8.8163   8.8427   8.9834   8.9878   9.4361   9.4965
     9.6935   9.7439  10.4880  10.5204  10.5778  10.6451  10.6829  10.7054
    11.8140  11.8875  14.5500  14.5872  14.6005  14.6092  14.6885  14.7356
    14.9837  14.9876  15.0161  15.0263  15.0500  15.0530  15.0687  15.0719
    15.0832  15.0894  15.1063  15.1190  15.1287  15.1362  15.1612  15.1697
    15.1999  15.2203  15.2499  15.2794  15.3188  15.3644  15.9560  16.0412
    16.3934  16.4096

     occupation numbers 
     1.0000   1.0000   1.0000   1.0000   1.0000   1.0000   1.0000   1.0000
     1.0000   1.0000   1.0000   1.0000   1.0000   1.0000   1.0000   1.0000
     1.0000   1.0000   1.0000   1.0000   1.0000   1.0000   1.0000   1.0000
     1.0000   1.0000   1.0000   1.0000   1.0000   1.0000   1.0000   1.0000
     1.0000   1.0000   1.0000   1.0000   1.0000   1.0000   1.0000   1.0000
     1.0000   1.0000   1.0000   1.0000   1.0000   1.0000   1.0000   1.0000
     1.0000   1.0000   1.0000   1.0000   1.0000   1.0000   1.0000   1.0000
     0.8701   0.8000   0.0000   0.0000   0.0000   0.0000   0.0000   0.0000
     0.0000   0.0000   0.0000   0.0000   0.0000   0.0000   0.0000   0.0000
     0.0000   0.0000   0.0000   0.0000   0.0000   0.0000   0.0000   0.0000
     0.0000   0.0000   0.0000   0.0000   0.0000   0.0000   0.0000   0.0000
     0.0000   0.0000

          k = 0.0625 0.4375 0.0901 ( 18678 PWs)   bands (ev):

   -19.8682 -19.8580 -19.8131 -19.8027  -7.0164  -6.8938  -6.6631  -6.5102
    -5.9467  -5.9417  -5.6285  -5.6022  -3.5763  -3.5455  -3.3339  -3.2978
    -3.2339  -3.2150  -3.1750  -3.1339  -2.2517  -2.1812  -2.1180  -2.1096
     5.2973   5.3149   6.7306   6.7967   6.9103   6.9692   7.1736   7.2565
     7.6949   7.6976   8.0483   8.2129   8.2450   8.3288   8.3543   8.4003
     8.6493   8.6542   8.7546   8.8103   8.9676   8.9699   9.5180   9.5316
     9.7165   9.7691  10.4857  10.5076  10.5786  10.6244  10.6887  10.7022
    11.8227  11.8719  14.5544  14.5790  14.6102  14.6162  14.6948  14.7249
    14.9822  14.9848  15.0191  15.0281  15.0492  15.0510  15.0723  15.0731
    15.0822  15.0846  15.1073  15.1149  15.1403  15.1414  15.1692  15.1809
    15.1998  15.2140  15.2595  15.2757  15.3073  15.3412  15.9692  16.0254
    16.3776  16.3946

     occupation numbers 
     1.0000   1.0000   1.0000   1.0000   1.0000   1.0000   1.0000   1.0000
     1.0000   1.0000   1.0000   1.0000   1.0000   1.0000   1.0000   1.0000
     1.0000   1.0000   1.0000   1.0000   1.0000   1.0000   1.0000   1.0000
     1.0000   1.0000   1.0000   1.0000   1.0000   1.0000   1.0000   1.0000
     1.0000   1.0000   1.0000   1.0000   1.0000   1.0000   1.0000   1.0000
     1.0000   1.0000   1.0000   1.0000   1.0000   1.0000   1.0000   1.0000
     1.0000   1.0000   1.0000   1.0000   1.0000   1.0000   1.0000   1.0000
     0.8632   0.8173   0.0000   0.0000   0.0000   0.0000   0.0000   0.0000
     0.0000   0.0000   0.0000   0.0000   0.0000   0.0000   0.0000   0.0000
     0.0000   0.0000   0.0000   0.0000   0.0000   0.0000   0.0000   0.0000
     0.0000   0.0000   0.0000   0.0000   0.0000   0.0000   0.0000   0.0000
     0.0000   0.0000

          k = 0.0625 0.4375 0.1262 ( 18696 PWs)   bands (ev):

   -19.8653 -19.8617 -19.8093 -19.8057  -6.9766  -6.9319  -6.6380  -6.5843
    -5.8352  -5.8326  -5.7142  -5.7027  -3.5389  -3.5300  -3.2996  -3.2925
    -3.2526  -3.2207  -3.1888  -3.1849  -2.2222  -2.1973  -2.1176  -2.1141
     5.3035   5.3097   6.7592   6.7832   6.9270   6.9473   7.1958   7.2248
     7.6634   7.6661   8.1348   8.2103   8.3145   8.3391   8.3600   8.4090
     8.5874   8.6073   8.7396   8.7680   8.9558   8.9562   9.5534   9.5543
     9.7545   9.7775  10.4859  10.4933  10.5876  10.6039  10.6936  10.6981
    11.8361  11.8534  14.5611  14.5697  14.6184  14.6205  14.7027  14.7129
    14.9816  14.9826  15.0234  15.0272  15.0484  15.0492  15.0759  15.0760
    15.0799  15.0804  15.1088  15.1112  15.1437  15.1450  15.1840  15.1911
    15.1995  15.2068  15.2682  15.2720  15.3021  15.3159  15.9867  16.0062
    16.3740  16.3810

     occupation numbers 
     1.0000   1.0000   1.0000   1.0000   1.0000   1.0000   1.0000   1.0000
     1.0000   1.0000   1.0000   1.0000   1.0000   1.0000   1.0000   1.0000
     1.0000   1.0000   1.0000   1.0000   1.0000   1.0000   1.0000   1.0000
     1.0000   1.0000   1.0000   1.0000   1.0000   1.0000   1.0000   1.0000
     1.0000   1.0000   1.0000   1.0000   1.0000   1.0000   1.0000   1.0000
     1.0000   1.0000   1.0000   1.0000   1.0000   1.0000   1.0000   1.0000
     1.0000   1.0000   1.0000   1.0000   1.0000   1.0000   1.0000   1.0000
     0.8523   0.8353   0.0000   0.0000   0.0000   0.0000   0.0000   0.0000
     0.0000   0.0000   0.0000   0.0000   0.0000   0.0000   0.0000   0.0000
     0.0000   0.0000   0.0000   0.0000   0.0000   0.0000   0.0000   0.0000
     0.0000   0.0000   0.0000   0.0000   0.0000   0.0000   0.0000   0.0000
     0.0000   0.0000

          k = 0.1875 0.1875 0.0180 ( 18707 PWs)   bands (ev):

   -19.9249 -19.8722 -19.8543 -19.8003  -7.2225  -7.1528  -6.1087  -6.0752
    -5.8518  -5.8394  -5.6930  -5.2865  -3.6293  -3.5369  -3.4757  -3.4231
    -3.3782  -3.2965  -3.1838  -3.0070  -2.5600  -2.2397  -2.1883  -2.1791
     5.8224   6.0036   6.4854   6.5118   6.9579   7.4234   7.4637   7.5463
     7.7876   7.8198   8.1231   8.2898   8.3218   8.4301   8.6641   8.6643
     8.7136   8.7527   8.9766   9.0579   9.4340   9.4766   9.6298   9.6672
     9.9163   9.9421   9.9852  10.0002  10.1350  10.3741  10.6347  11.1204
    11.6303  11.6439  13.7709  13.9773  14.4924  14.5175  14.6139  14.7738
    14.8378  14.8853  14.8928  14.9379  14.9502  15.0300  15.0479  15.0614
    15.0701  15.0951  15.1086  15.1171  15.1250  15.1537  15.1638  15.1836
    15.1889  15.2024  15.2803  15.3728  15.3890  15.4093  15.5749  15.7761
    15.9998  16.0069

     occupation numbers 
     1.0000   1.0000   1.0000   1.0000   1.0000   1.0000   1.0000   1.0000
     1.0000   1.0000   1.0000   1.0000   1.0000   1.0000   1.0000   1.0000
     1.0000   1.0000   1.0000   1.0000   1.0000   1.0000   1.0000   1.0000
     1.0000   1.0000   1.0000   1.0000   1.0000   1.0000   1.0000   1.0000
     1.0000   1.0000   1.0000   1.0000   1.0000   1.0000   1.0000   1.0000
     1.0000   1.0000   1.0000   1.0000   1.0000   1.0000   1.0000   1.0000
     1.0000   1.0000   1.0000   1.0000   1.0000   1.0000   1.0000   1.0000
     0.9564   0.9540   0.0000   0.0000   0.0000   0.0000   0.0000   0.0000
     0.0000   0.0000   0.0000   0.0000   0.0000   0.0000   0.0000   0.0000
     0.0000   0.0000   0.0000   0.0000   0.0000   0.0000   0.0000   0.0000
     0.0000   0.0000   0.0000   0.0000   0.0000   0.0000   0.0000   0.0000
     0.0000   0.0000

          k = 0.1875 0.1875 0.0541 ( 18700 PWs)   bands (ev):

   -19.9226 -19.8824 -19.8440 -19.8027  -7.2174  -7.1583  -6.1100  -6.0846
    -5.8509  -5.8404  -5.6577  -5.3166  -3.6203  -3.5269  -3.4661  -3.4355
    -3.3361  -3.3193  -3.1919  -3.0483  -2.5280  -2.2687  -2.1827  -2.1684
     5.8364   5.9901   6.4875   6.5099   6.9841   7.3610   7.4904   7.5480
     7.7898   7.8171   8.1217   8.2643   8.3378   8.4516   8.6115   8.6448
     8.7265   8.7576   9.0382   9.0963   9.4187   9.4404   9.6412   9.6678
     9.9212   9.9356   9.9797  10.0342  10.1011  10.3194  10.7106  11.0967
    11.6313  11.6429  13.7855  13.9600  14.4951  14.5164  14.6253  14.7576
    14.8409  14.8796  14.9020  14.9370  14.9574  15.0169  15.0628  15.0692
    15.0727  15.0905  15.1120  15.1230  15.1239  15.1540  15.1672  15.1832
    15.1851  15.2126  15.2753  15.3729  15.3868  15.3876  15.5861  15.7514
    15.9992  16.0387

     occupation numbers 
     1.0000   1.0000   1.0000   1.0000   1.0000   1.0000   1.0000   1.0000
     1.0000   1.0000   1.0000   1.0000   1.0000   1.0000   1.0000   1.0000
     1.0000   1.0000   1.0000   1.0000   1.0000   1.0000   1.0000   1.0000
     1.0000   1.0000   1.0000   1.0000   1.0000   1.0000   1.0000   1.0000
     1.0000   1.0000   1.0000   1.0000   1.0000   1.0000   1.0000   1.0000
     1.0000   1.0000   1.0000   1.0000   1.0000   1.0000   1.0000   1.0000
     1.0000   1.0000   1.0000   1.0000   1.0000   1.0000   1.0000   1.0000
     0.9562   0.9542   0.0000   0.0000   0.0000   0.0000   0.0000   0.0000
     0.0000   0.0000   0.0000   0.0000   0.0000   0.0000   0.0000   0.0000
     0.0000   0.0000   0.0000   0.0000   0.0000   0.0000   0.0000   0.0000
     0.0000   0.0000   0.0000   0.0000   0.0000   0.0000   0.0000   0.0000
     0.0000   0.0000

          k = 0.1875 0.1875 0.0901 ( 18684 PWs)   bands (ev):

   -19.9180 -19.8932 -19.8330 -19.8074  -7.2078  -7.1683  -6.1114  -6.0968
    -5.8492  -5.8422  -5.5966  -5.3717  -3.6026  -3.5073  -3.5002  -3.3692
    -3.3597  -3.2965  -3.2079  -3.1173  -2.4771  -2.3116  -2.1738  -2.1610
     5.8623   5.9649   6.4913   6.5062   7.0347   7.2794   7.5119   7.5482
     7.7939   7.8122   8.1256   8.2218   8.3694   8.4883   8.5418   8.6136
     8.7426   8.7631   9.1250   9.1646   9.3799   9.3836   9.6537   9.6681
     9.9305   9.9376   9.9695  10.0456  10.0846  10.2590  10.8071  11.0505
    11.6333  11.6410  13.8128  13.9290  14.4999  14.5140  14.6459  14.7319
    14.8466  14.8712  14.9138  14.9349  14.9686  15.0054  15.0654  15.0768
    15.0780  15.0977  15.1038  15.1213  15.1457  15.1546  15.1721  15.1823
    15.1923  15.2259  15.2662  15.3462  15.3736  15.3831  15.6076  15.7143
    16.0013  16.0510

     occupation numbers 
     1.0000   1.0000   1.0000   1.0000   1.0000   1.0000   1.0000   1.0000
     1.0000   1.0000   1.0000   1.0000   1.0000   1.0000   1.0000   1.0000
     1.0000   1.0000   1.0000   1.0000   1.0000   1.0000   1.0000   1.0000
     1.0000   1.0000   1.0000   1.0000   1.0000   1.0000   1.0000   1.0000
     1.0000   1.0000   1.0000   1.0000   1.0000   1.0000   1.0000   1.0000
     1.0000   1.0000   1.0000   1.0000   1.0000   1.0000   1.0000   1.0000
     1.0000   1.0000   1.0000   1.0000   1.0000   1.0000   1.0000   1.0000
     0.9559   0.9545   0.0000   0.0000   0.0000   0.0000   0.0000   0.0000
     0.0000   0.0000   0.0000   0.0000   0.0000   0.0000   0.0000   0.0000
     0.0000   0.0000   0.0000   0.0000   0.0000   0.0000   0.0000   0.0000
     0.0000   0.0000   0.0000   0.0000   0.0000   0.0000   0.0000   0.0000
     0.0000   0.0000

          k = 0.1875 0.1875 0.1262 ( 18676 PWs)   bands (ev):

   -19.9114 -19.9030 -19.8229 -19.8143  -7.1951  -7.1812  -6.1108  -6.1062
    -5.8469  -5.8444  -5.5215  -5.4432  -3.5770  -3.5448  -3.4588  -3.4092
    -3.2878  -3.2611  -3.2313  -3.2007  -2.4197  -2.3630  -2.1652  -2.1601
     5.8958   5.9319   6.4962   6.5015   7.1055   7.1902   7.5302   7.5429
     7.7996   7.8060   8.1430   8.1770   8.4155   8.4741   8.5314   8.5746
     8.7562   8.7635   9.2165   9.2471   9.3035   9.3250   9.6624   9.6668
     9.9428   9.9548   9.9565   9.9915  10.1421  10.2008  10.9012  10.9841
    11.6358  11.6386  13.8493  13.8900  14.5053  14.5102  14.6727  14.7024
    14.8539  14.8622  14.9238  14.9307  14.9811  14.9935  15.0690  15.0732
    15.0855  15.0945  15.1088  15.1164  15.1557  15.1558  15.1768  15.1802
    15.2318  15.2406  15.2539  15.2908  15.3756  15.3790  15.6379  15.6746
    16.0096  16.0261

     occupation numbers 
     1.0000   1.0000   1.0000   1.0000   1.0000   1.0000   1.0000   1.0000
     1.0000   1.0000   1.0000   1.0000   1.0000   1.0000   1.0000   1.0000
     1.0000   1.0000   1.0000   1.0000   1.0000   1.0000   1.0000   1.0000
     1.0000   1.0000   1.0000   1.0000   1.0000   1.0000   1.0000   1.0000
     1.0000   1.0000   1.0000   1.0000   1.0000   1.0000   1.0000   1.0000
     1.0000   1.0000   1.0000   1.0000   1.0000   1.0000   1.0000   1.0000
     1.0000   1.0000   1.0000   1.0000   1.0000   1.0000   1.0000   1.0000
     0.9552   0.9553   0.0000   0.0000   0.0000   0.0000   0.0000   0.0000
     0.0000   0.0000   0.0000   0.0000   0.0000   0.0000   0.0000   0.0000
     0.0000   0.0000   0.0000   0.0000   0.0000   0.0000   0.0000   0.0000
     0.0000   0.0000   0.0000   0.0000   0.0000   0.0000   0.0000   0.0000
     0.0000   0.0000

          k = 0.1875 0.3125 0.0180 ( 18720 PWs)   bands (ev):

   -19.8865 -19.8432 -19.8315 -19.7873  -7.0994  -6.9179  -6.3625  -6.1188
    -6.0573  -5.8426  -5.8063  -5.3504  -3.7090  -3.6409  -3.6045  -3.4252
    -3.3476  -3.3111  -3.1986  -2.9544  -2.4583  -2.3237  -2.1994  -2.1689
     5.3677   5.5113   6.4378   6.4696   6.9734   6.9772   7.0823   7.2859
     7.7015   7.7614   8.1473   8.2266   8.2895   8.3532   8.4307   8.4797
     8.6609   8.7234   8.9580   9.1126   9.4309   9.4394   9.5236   9.5523
    10.0455  10.1148  10.2770  10.3791  10.3935  10.5206  10.7758  11.1238
    12.1844  12.2018  14.3279  14.3591  14.5704  14.6280  14.7528  14.7563
    14.8644  14.8851  14.8928  14.9109  14.9539  15.0309  15.0417  15.0519
    15.0671  15.0765  15.0838  15.1074  15.1443  15.1558  15.1583  15.1905
    15.2030  15.2235  15.2768  15.3445  15.3534  15.3924  15.9945  16.0924
    16.1834  16.2262

     occupation numbers 
     1.0000   1.0000   1.0000   1.0000   1.0000   1.0000   1.0000   1.0000
     1.0000   1.0000   1.0000   1.0000   1.0000   1.0000   1.0000   1.0000
     1.0000   1.0000   1.0000   1.0000   1.0000   1.0000   1.0000   1.0000
     1.0000   1.0000   1.0000   1.0000   1.0000   1.0000   1.0000   1.0000
     1.0000   1.0000   1.0000   1.0000   1.0000   1.0000   1.0000   1.0000
     1.0000   1.0000   1.0000   1.0000   1.0000   1.0000   1.0000   1.0000
     1.0000   1.0000   1.0000   1.0000   1.0000   1.0000   1.0000   1.0000
     0.2608   0.1864   0.0000   0.0000   0.0000   0.0000   0.0000   0.0000
     0.0000   0.0000   0.0000   0.0000   0.0000   0.0000   0.0000   0.0000
     0.0000   0.0000   0.0000   0.0000   0.0000   0.0000   0.0000   0.0000
     0.0000   0.0000   0.0000   0.0000   0.0000   0.0000   0.0000   0.0000
     0.0000   0.0000

          k = 0.1875 0.3125 0.0541 ( 18718 PWs)   bands (ev):

   -19.8846 -19.8521 -19.8225 -19.7892  -7.0880  -6.9349  -6.3540  -6.1722
    -6.0042  -5.8180  -5.8034  -5.3902  -3.6979  -3.6316  -3.5671  -3.4464
    -3.3782  -3.2810  -3.1913  -3.0154  -2.4198  -2.3123  -2.2101  -2.1809
     5.3800   5.5020   6.4391   6.4663   6.9779   6.9806   7.0890   7.2681
     7.7028   7.7496   8.1467   8.2199   8.3003   8.3644   8.4145   8.5019
     8.6673   8.6818   8.9709   9.1346   9.4193   9.4465   9.5277   9.5481
    10.0438  10.0968  10.2989  10.3825  10.3858  10.5321  10.7900  11.0972
    12.1854  12.2001  14.3313  14.3577  14.5755  14.6244  14.7514  14.7547
    14.8549  14.8760  14.8956  14.9223  14.9619  15.0262  15.0503  15.0526
    15.0668  15.0710  15.0957  15.1096  15.1376  15.1600  15.1610  15.1874
    15.2040  15.2221  15.2800  15.3381  15.3521  15.3838  16.0056  16.0925
    16.2013  16.2336

     occupation numbers 
     1.0000   1.0000   1.0000   1.0000   1.0000   1.0000   1.0000   1.0000
     1.0000   1.0000   1.0000   1.0000   1.0000   1.0000   1.0000   1.0000
     1.0000   1.0000   1.0000   1.0000   1.0000   1.0000   1.0000   1.0000
     1.0000   1.0000   1.0000   1.0000   1.0000   1.0000   1.0000   1.0000
     1.0000   1.0000   1.0000   1.0000   1.0000   1.0000   1.0000   1.0000
     1.0000   1.0000   1.0000   1.0000   1.0000   1.0000   1.0000   1.0000
     1.0000   1.0000   1.0000   1.0000   1.0000   1.0000   1.0000   1.0000
     0.2563   0.1934   0.0000   0.0000   0.0000   0.0000   0.0000   0.0000
     0.0000   0.0000   0.0000   0.0000   0.0000   0.0000   0.0000   0.0000
     0.0000   0.0000   0.0000   0.0000   0.0000   0.0000   0.0000   0.0000
     0.0000   0.0000   0.0000   0.0000   0.0000   0.0000   0.0000   0.0000
     0.0000   0.0000

          k = 0.1875 0.3125 0.0901 ( 18722 PWs)   bands (ev):

   -19.8810 -19.8609 -19.8136 -19.7930  -7.0661  -6.9645  -6.3358  -6.2236
    -5.9533  -5.8383  -5.7352  -5.4615  -3.6769  -3.6189  -3.5316  -3.4284
    -3.4243  -3.2458  -3.1887  -3.1133  -2.3644  -2.2914  -2.2315  -2.2035
     5.4022   5.4839   6.4421   6.4604   6.9802   6.9876   7.1085   7.2342
     7.7058   7.7336   8.1497   8.2033   8.3184   8.3925   8.3926   8.5190
     8.6342   8.6682   9.0051   9.1443   9.4107   9.4492   9.5333   9.5431
    10.0424  10.0730  10.3342  10.3777  10.3942  10.5220  10.8329  11.0467
    12.1875  12.1972  14.3371  14.3547  14.5847  14.6175  14.7495  14.7519
    14.8483  14.8619  14.9064  14.9251  14.9772  15.0194  15.0540  15.0567
    15.0662  15.0667  15.1097  15.1203  15.1299  15.1627  15.1649  15.1803
    15.2061  15.2189  15.2866  15.3261  15.3511  15.3707  16.0256  16.0879
    16.2301  16.2466

     occupation numbers 
     1.0000   1.0000   1.0000   1.0000   1.0000   1.0000   1.0000   1.0000
     1.0000   1.0000   1.0000   1.0000   1.0000   1.0000   1.0000   1.0000
     1.0000   1.0000   1.0000   1.0000   1.0000   1.0000   1.0000   1.0000
     1.0000   1.0000   1.0000   1.0000   1.0000   1.0000   1.0000   1.0000
     1.0000   1.0000   1.0000   1.0000   1.0000   1.0000   1.0000   1.0000
     1.0000   1.0000   1.0000   1.0000   1.0000   1.0000   1.0000   1.0000
     1.0000   1.0000   1.0000   1.0000   1.0000   1.0000   1.0000   1.0000
     0.2475   0.2056   0.0000   0.0000   0.0000   0.0000   0.0000   0.0000
     0.0000   0.0000   0.0000   0.0000   0.0000   0.0000   0.0000   0.0000
     0.0000   0.0000   0.0000   0.0000   0.0000   0.0000   0.0000   0.0000
     0.0000   0.0000   0.0000   0.0000   0.0000   0.0000   0.0000   0.0000
     0.0000   0.0000

          k = 0.1875 0.3125 0.1262 ( 18719 PWs)   bands (ev):

   -19.8756 -19.8689 -19.8054 -19.7985  -7.0357  -7.0002  -6.3074  -6.2694
    -5.9075  -5.8687  -5.6470  -5.5515  -3.6496  -3.6243  -3.5119  -3.4729
    -3.3404  -3.2287  -3.2159  -3.1951  -2.3097  -2.2644  -2.2639  -2.2331
     5.4302   5.4589   6.4469   6.4534   6.9843   6.9882   7.1442   7.1897
     7.7113   7.7203   8.1608   8.1805   8.3416   8.3674   8.4381   8.4912
     8.6307   8.6535   9.0600   9.1158   9.4198   9.4384   9.5380   9.5406
    10.0448  10.0545  10.3596  10.3703  10.4299  10.4818  10.9018  10.9783
    12.1903  12.1937  14.3438  14.3500  14.5962  14.6077  14.7485  14.7494
    14.8473  14.8521  14.9155  14.9221  14.9942  15.0088  15.0559  15.0577
    15.0651  15.0656  15.1160  15.1226  15.1452  15.1652  15.1661  15.1671
    15.2094  15.2140  15.2968  15.3109  15.3528  15.3593  16.0505  16.0735
    16.2548  16.2590

     occupation numbers 
     1.0000   1.0000   1.0000   1.0000   1.0000   1.0000   1.0000   1.0000
     1.0000   1.0000   1.0000   1.0000   1.0000   1.0000   1.0000   1.0000
     1.0000   1.0000   1.0000   1.0000   1.0000   1.0000   1.0000   1.0000
     1.0000   1.0000   1.0000   1.0000   1.0000   1.0000   1.0000   1.0000
     1.0000   1.0000   1.0000   1.0000   1.0000   1.0000   1.0000   1.0000
     1.0000   1.0000   1.0000   1.0000   1.0000   1.0000   1.0000   1.0000
     1.0000   1.0000   1.0000   1.0000   1.0000   1.0000   1.0000   1.0000
     0.2380   0.2175   0.0000   0.0000   0.0000   0.0000   0.0000   0.0000
     0.0000   0.0000   0.0000   0.0000   0.0000   0.0000   0.0000   0.0000
     0.0000   0.0000   0.0000   0.0000   0.0000   0.0000   0.0000   0.0000
     0.0000   0.0000   0.0000   0.0000   0.0000   0.0000   0.0000   0.0000
     0.0000   0.0000

          k = 0.1875 0.4375 0.0180 ( 18722 PWs)   bands (ev):

   -19.8522 -19.8362 -19.8013 -19.7850  -6.9451  -6.7563  -6.5646  -6.3315
    -6.0691  -5.9895  -5.6457  -5.4764  -3.7082  -3.7069  -3.5407  -3.4250
    -3.4179  -3.3499  -3.1761  -3.0345  -2.3736  -2.2947  -2.2815  -2.2030
     5.0717   5.1205   6.4570   6.5497   6.6589   6.7675   7.0035   7.1016
     7.6462   7.6970   8.1723   8.2167   8.2740   8.3256   8.3312   8.3626
     8.7809   8.8301   8.8918   9.1624   9.2736   9.3542   9.4256   9.4344
    10.0955  10.1252  10.5114  10.5574  10.6778  10.7082  10.9261  11.0513
    12.4415  12.4582  14.6209  14.6237  14.6446  14.6609  14.7109  14.7707
    14.9015  14.9278  14.9353  14.9394  14.9815  14.9883  15.0012  15.0026
    15.0203  15.0438  15.1171  15.1397  15.1474  15.1507  15.1531  15.1719
    15.2246  15.2380  15.2736  15.2967  15.3537  15.3826  16.1147  16.2410
    16.3890  16.4364

     occupation numbers 
     1.0000   1.0000   1.0000   1.0000   1.0000   1.0000   1.0000   1.0000
     1.0000   1.0000   1.0000   1.0000   1.0000   1.0000   1.0000   1.0000
     1.0000   1.0000   1.0000   1.0000   1.0000   1.0000   1.0000   1.0000
     1.0000   1.0000   1.0000   1.0000   1.0000   1.0000   1.0000   1.0000
     1.0000   1.0000   1.0000   1.0000   1.0000   1.0000   1.0000   1.0000
     1.0000   1.0000   1.0000   1.0000   1.0000   1.0000   1.0000   1.0000
     1.0000   1.0000   1.0000   1.0000   1.0000   1.0000   1.0000   1.0000
    -0.0251  -0.0626   0.0000   0.0000   0.0000   0.0000   0.0000   0.0000
     0.0000   0.0000   0.0000   0.0000   0.0000   0.0000   0.0000   0.0000
     0.0000   0.0000   0.0000   0.0000   0.0000   0.0000   0.0000   0.0000
     0.0000   0.0000   0.0000   0.0000   0.0000   0.0000   0.0000   0.0000
     0.0000   0.0000

          k = 0.1875 0.4375 0.0541 ( 18716 PWs)   bands (ev):

   -19.8512 -19.8379 -19.7996 -19.7860  -6.9314  -6.7651  -6.5727  -6.3797
    -6.0131  -5.9438  -5.6672  -5.5114  -3.7135  -3.7052  -3.4951  -3.4525
    -3.4372  -3.3105  -3.1759  -3.0690  -2.3634  -2.2884  -2.2872  -2.2081
     5.0774   5.1189   6.4621   6.5440   6.6563   6.7500   7.0195   7.1017
     7.6516   7.6942   8.1656   8.1986   8.2930   8.3292   8.3453   8.3934
     8.7260   8.7802   8.9071   9.1834   9.2147   9.3305   9.4847   9.4896
    10.0964  10.1211  10.5323  10.5811  10.6769  10.7087  10.9038  11.0237
    12.4421  12.4562  14.6233  14.6296  14.6447  14.6603  14.7146  14.7650
    14.8987  14.9222  14.9373  14.9400  14.9794  14.9843  14.9984  15.0000
    15.0432  15.0519  15.1162  15.1401  15.1436  15.1525  15.1544  15.1729
    15.2224  15.2296  15.2768  15.2954  15.3515  15.3766  16.1110  16.2110
    16.4204  16.4693

     occupation numbers 
     1.0000   1.0000   1.0000   1.0000   1.0000   1.0000   1.0000   1.0000
     1.0000   1.0000   1.0000   1.0000   1.0000   1.0000   1.0000   1.0000
     1.0000   1.0000   1.0000   1.0000   1.0000   1.0000   1.0000   1.0000
     1.0000   1.0000   1.0000   1.0000   1.0000   1.0000   1.0000   1.0000
     1.0000   1.0000   1.0000   1.0000   1.0000   1.0000   1.0000   1.0000
     1.0000   1.0000   1.0000   1.0000   1.0000   1.0000   1.0000   1.0000
     1.0000   1.0000   1.0000   1.0000   1.0000   1.0000   1.0000   1.0000
    -0.0276  -0.0597   0.0000   0.0000   0.0000   0.0000   0.0000   0.0000
     0.0000   0.0000   0.0000   0.0000   0.0000   0.0000   0.0000   0.0000
     0.0000   0.0000   0.0000   0.0000   0.0000   0.0000   0.0000   0.0000
     0.0000   0.0000   0.0000   0.0000   0.0000   0.0000   0.0000   0.0000
     0.0000   0.0000

          k = 0.1875 0.4375 0.0901 ( 18725 PWs)   bands (ev):

   -19.8494 -19.8407 -19.7967 -19.7878  -6.9051  -6.7892  -6.5697  -6.4417
    -5.9368  -5.8694  -5.7059  -5.5756  -3.7157  -3.7030  -3.4783  -3.4582
    -3.4207  -3.2761  -3.1782  -3.1273  -2.3481  -2.3006  -2.2726  -2.2186
     5.0873   5.1151   6.4729   6.5301   6.6589   6.7231   7.0438   7.0982
     7.6606   7.6886   8.1602   8.1824   8.3014   8.3226   8.3945   8.4500
     8.6415   8.6990   8.9455   9.1436   9.2135   9.3048   9.5436   9.5473
    10.0986  10.1148  10.5725  10.6166  10.6750  10.7069  10.8736  10.9740
    12.4436  12.4529  14.6270  14.6399  14.6420  14.6606  14.7213  14.7548
    14.8963  14.9114  14.9386  14.9441  14.9775  14.9817  14.9973  14.9985
    15.0641  15.0672  15.1158  15.1385  15.1416  15.1533  15.1559  15.1734
    15.2177  15.2181  15.2809  15.2929  15.3494  15.3667  16.1120  16.1756
    16.4589  16.5135

     occupation numbers 
     1.0000   1.0000   1.0000   1.0000   1.0000   1.0000   1.0000   1.0000
     1.0000   1.0000   1.0000   1.0000   1.0000   1.0000   1.0000   1.0000
     1.0000   1.0000   1.0000   1.0000   1.0000   1.0000   1.0000   1.0000
     1.0000   1.0000   1.0000   1.0000   1.0000   1.0000   1.0000   1.0000
     1.0000   1.0000   1.0000   1.0000   1.0000   1.0000   1.0000   1.0000
     1.0000   1.0000   1.0000   1.0000   1.0000   1.0000   1.0000   1.0000
     1.0000   1.0000   1.0000   1.0000   1.0000   1.0000   1.0000   1.0000
    -0.0324  -0.0541   0.0000   0.0000   0.0000   0.0000   0.0000   0.0000
     0.0000   0.0000   0.0000   0.0000   0.0000   0.0000   0.0000   0.0000
     0.0000   0.0000   0.0000   0.0000   0.0000   0.0000   0.0000   0.0000
     0.0000   0.0000   0.0000   0.0000   0.0000   0.0000   0.0000   0.0000
     0.0000   0.0000

          k = 0.1875 0.4375 0.1262 ( 18727 PWs)   bands (ev):

   -19.8469 -19.8439 -19.7935 -19.7904  -6.8686  -6.8271  -6.5442  -6.4993
    -5.8608  -5.8130  -5.7285  -5.6579  -3.7115  -3.7053  -3.4862  -3.4768
    -3.3385  -3.2750  -3.1842  -3.1789  -2.3317  -2.3156  -2.2535  -2.2344
     5.0984   5.1082   6.4893   6.5099   6.6723   6.6951   7.0684   7.0875
     7.6708   7.6805   8.1616   8.1699   8.3060   8.3136   8.4653   8.5242
     8.5502   8.6097   9.0024   9.0709   9.2454   9.2763   9.5792   9.5808
    10.1025  10.1082  10.6227  10.6419  10.6729  10.6891  10.8716  10.9150
    12.4459  12.4492  14.6318  14.6371  14.6508  14.6583  14.7307  14.7426
    14.8969  14.9020  14.9416  14.9443  14.9781  14.9799  14.9970  14.9975
    15.0756  15.0797  15.1213  15.1315  15.1449  15.1497  15.1614  15.1691
    15.2108  15.2129  15.2852  15.2894  15.3506  15.3568  16.1234  16.1452
    16.4960  16.5246

     occupation numbers 
     1.0000   1.0000   1.0000   1.0000   1.0000   1.0000   1.0000   1.0000
     1.0000   1.0000   1.0000   1.0000   1.0000   1.0000   1.0000   1.0000
     1.0000   1.0000   1.0000   1.0000   1.0000   1.0000   1.0000   1.0000
     1.0000   1.0000   1.0000   1.0000   1.0000   1.0000   1.0000   1.0000
     1.0000   1.0000   1.0000   1.0000   1.0000   1.0000   1.0000   1.0000
     1.0000   1.0000   1.0000   1.0000   1.0000   1.0000   1.0000   1.0000
     1.0000   1.0000   1.0000   1.0000   1.0000   1.0000   1.0000   1.0000
    -0.0372  -0.0488   0.0000   0.0000   0.0000   0.0000   0.0000   0.0000
     0.0000   0.0000   0.0000   0.0000   0.0000   0.0000   0.0000   0.0000
     0.0000   0.0000   0.0000   0.0000   0.0000   0.0000   0.0000   0.0000
     0.0000   0.0000   0.0000   0.0000   0.0000   0.0000   0.0000   0.0000
     0.0000   0.0000

          k = 0.3125 0.3125 0.0180 ( 18730 PWs)   bands (ev):

   -19.8529 -19.8227 -19.8022 -19.7716  -6.9424  -6.7483  -6.2059  -6.1832
    -6.0925  -5.9961  -5.8026  -5.3658  -3.9093  -3.7137  -3.6694  -3.6551
    -3.4618  -3.3541  -3.1077  -3.0252  -2.6137  -2.4676  -2.3138  -2.2355
     4.9627   5.0895   6.2165   6.2229   6.5844   6.5915   7.2032   7.4884
     7.5207   7.5765   8.0252   8.2225   8.3478   8.3638   8.4410   8.5330
     8.6335   8.8786   8.9459   9.3600   9.4315   9.6961   9.7605   9.8154
    10.3623  10.4343  10.4450  10.4570  10.4796  10.5488  10.9875  11.2420
    12.9080  12.9302  14.5750  14.5844  14.6024  14.7483  14.7723  14.8078
    14.8088  14.8460  14.8507  14.8705  14.8804  14.9615  14.9866  15.0090
    15.0158  15.0332  15.1253  15.1348  15.1436  15.1487  15.1834  15.1845
    15.2066  15.2310  15.3346  15.3481  15.3750  15.3751  15.8703  15.9060
    16.6037  16.6621

     occupation numbers 
     1.0000   1.0000   1.0000   1.0000   1.0000   1.0000   1.0000   1.0000
     1.0000   1.0000   1.0000   1.0000   1.0000   1.0000   1.0000   1.0000
     1.0000   1.0000   1.0000   1.0000   1.0000   1.0000   1.0000   1.0000
     1.0000   1.0000   1.0000   1.0000   1.0000   1.0000   1.0000   1.0000
     1.0000   1.0000   1.0000   1.0000   1.0000   1.0000   1.0000   1.0000
     1.0000   1.0000   1.0000   1.0000   1.0000   1.0000   1.0000   1.0000
     1.0000   1.0000   1.0000   1.0000   1.0000   1.0000   1.0000   1.0000
    -0.0326  -0.0321   0.0000   0.0000   0.0000   0.0000   0.0000   0.0000
     0.0000   0.0000   0.0000   0.0000   0.0000   0.0000   0.0000   0.0000
     0.0000   0.0000   0.0000   0.0000   0.0000   0.0000   0.0000   0.0000
     0.0000   0.0000   0.0000   0.0000   0.0000   0.0000   0.0000   0.0000
     0.0000   0.0000

          k = 0.3125 0.3125 0.0541 ( 18724 PWs)   bands (ev):

   -19.8514 -19.8274 -19.7975 -19.7730  -6.9307  -6.7675  -6.2042  -6.1850
[...]
    15.0386  15.0442  15.1151  15.1345  15.1401  15.1594  15.1673  15.1796
    15.2068  15.2166  15.3371  15.3518  15.3552  15.3673  15.9207  15.9518
    16.6006  16.6607

     occupation numbers 
     1.0000   1.0000   1.0000   1.0000   1.0000   1.0000   1.0000   1.0000
     1.0000   1.0000   1.0000   1.0000   1.0000   1.0000   1.0000   1.0000
     1.0000   1.0000   1.0000   1.0000   1.0000   1.0000   1.0000   1.0000
     1.0000   1.0000   1.0000   1.0000   1.0000   1.0000   1.0000   1.0000
     1.0000   1.0000   1.0000   1.0000   1.0000   1.0000   1.0000   1.0000
     1.0000   1.0000   1.0000   1.0000   1.0000   1.0000   1.0000   1.0000
     1.0000   1.0000   1.0000   1.0000   1.0000   1.0000   1.0000   1.0000
    -0.0326  -0.0323   0.0000   0.0000   0.0000   0.0000   0.0000   0.0000
     0.0000   0.0000   0.0000   0.0000   0.0000   0.0000   0.0000   0.0000
     0.0000   0.0000   0.0000   0.0000   0.0000   0.0000   0.0000   0.0000
     0.0000   0.0000   0.0000   0.0000   0.0000   0.0000   0.0000   0.0000
     0.0000   0.0000

          k = 0.3125 0.3125 0.1262 ( 18758 PWs)   bands (ev):

   -19.8445 -19.8393 -19.7854 -19.7802  -6.8762  -6.8386  -6.1970  -6.1924
    -6.0557  -6.0365  -5.6255  -5.5403  -3.8309  -3.7846  -3.6654  -3.6084
    -3.3895  -3.2750  -3.2276  -3.1828  -2.4769  -2.4194  -2.3421  -2.2998
     5.0228   5.0484   6.2190   6.2203   6.5630   6.5648   7.3176   7.3746
     7.5411   7.5521   8.0993   8.1377   8.3721   8.3867   8.4187   8.4551
     8.7260   8.7617   9.1801   9.2650   9.4713   9.5302   9.8182   9.8216
    10.3819  10.3850  10.4664  10.4710  10.5919  10.6545  10.9810  11.0577
    12.9172  12.9217  14.5808  14.5826  14.6547  14.6834  14.7805  14.7912
    14.8031  14.8038  14.8670  14.8724  14.9327  14.9434  15.0093  15.0105
    15.0527  15.0551  15.1218  15.1357  15.1377  15.1450  15.1669  15.1740
    15.2078  15.2105  15.3402  15.3459  15.3559  15.3614  15.9509  15.9638
    16.6108  16.6612

     occupation numbers 
     1.0000   1.0000   1.0000   1.0000   1.0000   1.0000   1.0000   1.0000
     1.0000   1.0000   1.0000   1.0000   1.0000   1.0000   1.0000   1.0000
     1.0000   1.0000   1.0000   1.0000   1.0000   1.0000   1.0000   1.0000
     1.0000   1.0000   1.0000   1.0000   1.0000   1.0000   1.0000   1.0000
     1.0000   1.0000   1.0000   1.0000   1.0000   1.0000   1.0000   1.0000
     1.0000   1.0000   1.0000   1.0000   1.0000   1.0000   1.0000   1.0000
     1.0000   1.0000   1.0000   1.0000   1.0000   1.0000   1.0000   1.0000
    -0.0326  -0.0323   0.0000   0.0000   0.0000   0.0000   0.0000   0.0000
     0.0000   0.0000   0.0000   0.0000   0.0000   0.0000   0.0000   0.0000
     0.0000   0.0000   0.0000   0.0000   0.0000   0.0000   0.0000   0.0000
     0.0000   0.0000   0.0000   0.0000   0.0000   0.0000   0.0000   0.0000
     0.0000   0.0000

          k = 0.3125 0.4375 0.0180 ( 18739 PWs)   bands (ev):

   -19.8243 -19.8135 -19.7760 -19.7650  -6.7490  -6.5954  -6.4441  -6.3652
    -5.8934  -5.8279  -5.8041  -5.5233  -3.9434  -3.8446  -3.6924  -3.6099
    -3.5736  -3.2912  -3.2902  -3.1441  -2.6317  -2.4649  -2.4329  -2.4055
     4.6697   4.7128   6.1371   6.1433   6.3763   6.3803   7.3038   7.3760
     7.4344   7.4936   8.1644   8.2259   8.2941   8.4057   8.4199   8.4730
     8.7595   8.8848   9.2532   9.4855   9.5039   9.6336   9.8321   9.8464
    10.5055  10.5183  10.5325  10.5633  10.7174  10.7377  11.1398  11.2295
    13.3160  13.3260  14.6488  14.6985  14.7201  14.7236  14.7523  14.8050
    14.8266  14.8600  14.8639  14.8868  14.8878  14.9145  14.9376  14.9511
    14.9780  15.0156  15.1219  15.1289  15.1546  15.1608  15.1891  15.2042
    15.2305  15.2789  15.2953  15.3350  15.3732  15.3749  15.9030  15.9283
    16.2304  16.2370

     occupation numbers 
     1.0000   1.0000   1.0000   1.0000   1.0000   1.0000   1.0000   1.0000
     1.0000   1.0000   1.0000   1.0000   1.0000   1.0000   1.0000   1.0000
     1.0000   1.0000   1.0000   1.0000   1.0000   1.0000   1.0000   1.0000
     1.0000   1.0000   1.0000   1.0000   1.0000   1.0000   1.0000   1.0000
     1.0000   1.0000   1.0000   1.0000   1.0000   1.0000   1.0000   1.0000
     1.0000   1.0000   1.0000   1.0000   1.0000   1.0000   1.0000   1.0000
     1.0000   1.0000   1.0000   1.0000   1.0000   1.0000   1.0000   1.0000
     0.0000   0.0000   0.0000   0.0000   0.0000   0.0000   0.0000   0.0000
     0.0000   0.0000   0.0000   0.0000   0.0000   0.0000   0.0000   0.0000
     0.0000   0.0000   0.0000   0.0000   0.0000   0.0000   0.0000   0.0000
     0.0000   0.0000   0.0000   0.0000   0.0000   0.0000   0.0000   0.0000
     0.0000   0.0000

          k = 0.3125 0.4375 0.0541 ( 18746 PWs)   bands (ev):

   -19.8236 -19.8145 -19.7749 -19.7657  -6.7387  -6.6078  -6.4420  -6.3733
    -5.8890  -5.8395  -5.7716  -5.5404  -3.9313  -3.8475  -3.7187  -3.6449
    -3.5324  -3.2878  -3.2699  -3.1494  -2.6332  -2.4703  -2.4497  -2.3898
     4.6762   4.7129   6.1378   6.1434   6.3693   6.3721   7.3105   7.3711
     7.4457   7.4999   8.1333   8.1938   8.3199   8.4039   8.4325   8.4899
     8.7514   8.8627   9.2755   9.4745   9.5096   9.6245   9.8421   9.8542
    10.4943  10.4981  10.5790  10.6174  10.7171  10.7401  11.1047  11.1910
    13.3169  13.3253  14.6560  14.6974  14.7232  14.7261  14.7509  14.7972
    14.8271  14.8515  14.8692  14.8864  14.8876  14.9080  14.9365  14.9493
    15.0010  15.0266  15.1219  15.1280  15.1464  15.1535  15.1903  15.2033
    15.2324  15.2706  15.2995  15.3315  15.3726  15.3734  15.9217  15.9367
    16.2262  16.2448

     occupation numbers 
     1.0000   1.0000   1.0000   1.0000   1.0000   1.0000   1.0000   1.0000
     1.0000   1.0000   1.0000   1.0000   1.0000   1.0000   1.0000   1.0000
     1.0000   1.0000   1.0000   1.0000   1.0000   1.0000   1.0000   1.0000
     1.0000   1.0000   1.0000   1.0000   1.0000   1.0000   1.0000   1.0000
     1.0000   1.0000   1.0000   1.0000   1.0000   1.0000   1.0000   1.0000
     1.0000   1.0000   1.0000   1.0000   1.0000   1.0000   1.0000   1.0000
     1.0000   1.0000   1.0000   1.0000   1.0000   1.0000   1.0000   1.0000
     0.0000   0.0000   0.0000   0.0000   0.0000   0.0000   0.0000   0.0000
     0.0000   0.0000   0.0000   0.0000   0.0000   0.0000   0.0000   0.0000
     0.0000   0.0000   0.0000   0.0000   0.0000   0.0000   0.0000   0.0000
     0.0000   0.0000   0.0000   0.0000   0.0000   0.0000   0.0000   0.0000
     0.0000   0.0000

          k = 0.3125 0.4375 0.0901 ( 18753 PWs)   bands (ev):

   -19.8223 -19.8163 -19.7731 -19.7670  -6.7191  -6.6311  -6.4350  -6.3878
    -5.8810  -5.8497  -5.7253  -5.5733  -3.9084  -3.8478  -3.7517  -3.6955
    -3.4709  -3.3035  -3.2363  -3.1580  -2.6253  -2.5148  -2.4278  -2.3856
     4.6870   4.7116   6.1392   6.1432   6.3593   6.3606   7.3220   7.3619
     7.4655   7.5058   8.1038   8.1499   8.3470   8.3967   8.4559   8.5065
     8.7463   8.8271   9.3126   9.4428   9.5312   9.6075   9.8560   9.8641
    10.4882  10.4890  10.6475  10.6756  10.7173  10.7517  11.0474  11.1226
    13.3184  13.3241  14.6686  14.6960  14.7230  14.7318  14.7511  14.7859
    14.8264  14.8397  14.8777  14.8861  14.8872  14.9014  14.9371  14.9463
    15.0321  15.0452  15.1221  15.1262  15.1316  15.1385  15.1926  15.2014
    15.2361  15.2598  15.3048  15.3252  15.3715  15.3717  15.9481  15.9507
    16.2244  16.2520

     occupation numbers 
     1.0000   1.0000   1.0000   1.0000   1.0000   1.0000   1.0000   1.0000
     1.0000   1.0000   1.0000   1.0000   1.0000   1.0000   1.0000   1.0000
     1.0000   1.0000   1.0000   1.0000   1.0000   1.0000   1.0000   1.0000
     1.0000   1.0000   1.0000   1.0000   1.0000   1.0000   1.0000   1.0000
     1.0000   1.0000   1.0000   1.0000   1.0000   1.0000   1.0000   1.0000
     1.0000   1.0000   1.0000   1.0000   1.0000   1.0000   1.0000   1.0000
     1.0000   1.0000   1.0000   1.0000   1.0000   1.0000   1.0000   1.0000
     0.0000   0.0000   0.0000   0.0000   0.0000   0.0000   0.0000   0.0000
     0.0000   0.0000   0.0000   0.0000   0.0000   0.0000   0.0000   0.0000
     0.0000   0.0000   0.0000   0.0000   0.0000   0.0000   0.0000   0.0000
     0.0000   0.0000   0.0000   0.0000   0.0000   0.0000   0.0000   0.0000
     0.0000   0.0000

          k = 0.3125 0.4375 0.1262 ( 18750 PWs)   bands (ev):

   -19.8205 -19.8184 -19.7710 -19.7688  -6.6921  -6.6612  -6.4221  -6.4052
    -5.8710  -5.8602  -5.6717  -5.6188  -3.8789  -3.8537  -3.7663  -3.7423
    -3.4044  -3.3449  -3.2014  -3.1741  -2.6004  -2.5608  -2.4069  -2.3919
     4.6983   4.7070   6.1409   6.1424   6.3521   6.3526   7.3357   7.3496
     7.4872   7.5025   8.0950   8.1125   8.3684   8.3846   8.4838   8.5047
     8.7580   8.7884   9.3565   9.4015   9.5579   9.5844   9.8664   9.8694
    10.4854  10.4862  10.7033  10.7046  10.7354  10.7699  11.0082  11.0452
    13.3204  13.3224  14.6825  14.6921  14.7245  14.7290  14.7598  14.7729
    14.8267  14.8307  14.8861  14.8867  14.8869  14.8948  14.9393  14.9426
    15.0606  15.0640  15.1144  15.1177  15.1240  15.1256  15.1956  15.1987
    15.2419  15.2498  15.3110  15.3180  15.3707  15.3709  15.9636  15.9650
    16.2332  16.2475

     occupation numbers 
     1.0000   1.0000   1.0000   1.0000   1.0000   1.0000   1.0000   1.0000
     1.0000   1.0000   1.0000   1.0000   1.0000   1.0000   1.0000   1.0000
     1.0000   1.0000   1.0000   1.0000   1.0000   1.0000   1.0000   1.0000
     1.0000   1.0000   1.0000   1.0000   1.0000   1.0000   1.0000   1.0000
     1.0000   1.0000   1.0000   1.0000   1.0000   1.0000   1.0000   1.0000
     1.0000   1.0000   1.0000   1.0000   1.0000   1.0000   1.0000   1.0000
     1.0000   1.0000   1.0000   1.0000   1.0000   1.0000   1.0000   1.0000
     0.0000   0.0000   0.0000   0.0000   0.0000   0.0000   0.0000   0.0000
     0.0000   0.0000   0.0000   0.0000   0.0000   0.0000   0.0000   0.0000
     0.0000   0.0000   0.0000   0.0000   0.0000   0.0000   0.0000   0.0000
     0.0000   0.0000   0.0000   0.0000   0.0000   0.0000   0.0000   0.0000
     0.0000   0.0000

          k = 0.4375 0.4375 0.0180 ( 18774 PWs)   bands (ev):

   -19.8028 -19.7989 -19.7563 -19.7524  -6.5371  -6.4895  -6.4233  -6.3948
    -5.8332  -5.7282  -5.6925  -5.6617  -4.0956  -4.0368  -3.8193  -3.7760
    -3.3852  -3.3609  -3.3044  -3.0863  -2.9931  -2.7330  -2.5126  -2.4983
     4.3491   4.3640   5.9966   5.9974   6.2387   6.2500   7.2930   7.3040
     7.4194   7.4586   8.2679   8.2996   8.3705   8.4321   8.4829   8.5307
     8.7018   8.8147   9.5909   9.6698   9.6853   9.7470  10.1402  10.1435
    10.5647  10.5736  10.7500  10.7530  10.7946  10.8074  11.2453  11.2775
    13.8950  13.9033  14.6802  14.7056  14.7138  14.7516  14.8045  14.8143
    14.8174  14.8235  14.8361  14.8433  14.8598  14.8822  14.9048  14.9217
    14.9737  14.9900  15.1016  15.1060  15.1568  15.1584  15.2524  15.2526
    15.2619  15.3032  15.3221  15.3618  15.3702  15.3721  15.7006  15.8500
    15.9475  16.1920

     occupation numbers 
     1.0000   1.0000   1.0000   1.0000   1.0000   1.0000   1.0000   1.0000
     1.0000   1.0000   1.0000   1.0000   1.0000   1.0000   1.0000   1.0000
     1.0000   1.0000   1.0000   1.0000   1.0000   1.0000   1.0000   1.0000
     1.0000   1.0000   1.0000   1.0000   1.0000   1.0000   1.0000   1.0000
     1.0000   1.0000   1.0000   1.0000   1.0000   1.0000   1.0000   1.0000
     1.0000   1.0000   1.0000   1.0000   1.0000   1.0000   1.0000   1.0000
     1.0000   1.0000   1.0000   1.0000   1.0000   1.0000   1.0000   1.0000
     0.0000   0.0000   0.0000   0.0000   0.0000   0.0000   0.0000   0.0000
     0.0000   0.0000   0.0000   0.0000   0.0000   0.0000   0.0000   0.0000
     0.0000   0.0000   0.0000   0.0000   0.0000   0.0000   0.0000   0.0000
     0.0000   0.0000   0.0000   0.0000   0.0000   0.0000   0.0000   0.0000
     0.0000   0.0000

          k = 0.4375 0.4375 0.0541 ( 18759 PWs)   bands (ev):

   -19.8025 -19.7993 -19.7560 -19.7527  -6.5335  -6.4930  -6.4212  -6.3970
    -5.8312  -5.7469  -5.6841  -5.6531  -4.0798  -4.0241  -3.8504  -3.8072
    -3.3720  -3.3299  -3.2955  -3.1019  -2.9775  -2.7539  -2.5116  -2.4989
     4.3537   4.3663   5.9966   5.9973   6.2353   6.2446   7.3047   7.3151
     7.4125   7.4449   8.2383   8.2417   8.4154   8.4406   8.4782   8.5240
     8.7345   8.8210   9.5973   9.6640   9.6898   9.7420  10.1407  10.1436
    10.6062  10.6123  10.7571  10.7589  10.7911  10.8032  11.2023  11.2334
    13.8957  13.9028  14.6861  14.7123  14.7150  14.7521  14.7992  14.8071
    14.8095  14.8194  14.8391  14.8527  14.8607  14.8848  14.9022  14.9192
    14.9903  15.0025  15.1019  15.1056  15.1461  15.1468  15.2530  15.2534
    15.2654  15.3066  15.3157  15.3563  15.3704  15.3721  15.7087  15.8257
    16.0048  16.2309

     occupation numbers 
     1.0000   1.0000   1.0000   1.0000   1.0000   1.0000   1.0000   1.0000
     1.0000   1.0000   1.0000   1.0000   1.0000   1.0000   1.0000   1.0000
     1.0000   1.0000   1.0000   1.0000   1.0000   1.0000   1.0000   1.0000
     1.0000   1.0000   1.0000   1.0000   1.0000   1.0000   1.0000   1.0000
     1.0000   1.0000   1.0000   1.0000   1.0000   1.0000   1.0000   1.0000
     1.0000   1.0000   1.0000   1.0000   1.0000   1.0000   1.0000   1.0000
     1.0000   1.0000   1.0000   1.0000   1.0000   1.0000   1.0000   1.0000
     0.0000   0.0000   0.0000   0.0000   0.0000   0.0000   0.0000   0.0000
     0.0000   0.0000   0.0000   0.0000   0.0000   0.0000   0.0000   0.0000
     0.0000   0.0000   0.0000   0.0000   0.0000   0.0000   0.0000   0.0000
     0.0000   0.0000   0.0000   0.0000   0.0000   0.0000   0.0000   0.0000
     0.0000   0.0000

          k = 0.4375 0.4375 0.0901 ( 18739 PWs)   bands (ev):

   -19.8020 -19.7998 -19.7554 -19.7532  -6.5267  -6.4996  -6.4173  -6.4011
    -5.8251  -5.7714  -5.6708  -5.6473  -4.0493  -3.9983  -3.8999  -3.8568
    -3.3491  -3.2914  -3.2806  -3.1321  -2.9443  -2.7923  -2.5095  -2.5005
     4.3607   4.3692   5.9967   5.9973   6.2307   6.2368   7.3266   7.3345
     7.3992   7.4201   8.1939   8.1992   8.4464   8.4558   8.4746   8.5113
     8.7760   8.8273   9.6089   9.6532   9.6981   9.7330  10.1417  10.1437
    10.6722  10.6757  10.7646  10.7814  10.7881  10.7955  11.1286  11.1563
    13.8970  13.9017  14.6964  14.7158  14.7247  14.7544  14.7797  14.7909
    14.8121  14.8277  14.8336  14.8559  14.8667  14.8915  14.8969  14.9145
    15.0177  15.0247  15.1023  15.1048  15.1260  15.1261  15.2537  15.2543
    15.2723  15.3052  15.3133  15.3466  15.3707  15.3721  15.7241  15.7980
    16.0970  16.3072

     occupation numbers 
     1.0000   1.0000   1.0000   1.0000   1.0000   1.0000   1.0000   1.0000
     1.0000   1.0000   1.0000   1.0000   1.0000   1.0000   1.0000   1.0000
     1.0000   1.0000   1.0000   1.0000   1.0000   1.0000   1.0000   1.0000
     1.0000   1.0000   1.0000   1.0000   1.0000   1.0000   1.0000   1.0000
     1.0000   1.0000   1.0000   1.0000   1.0000   1.0000   1.0000   1.0000
     1.0000   1.0000   1.0000   1.0000   1.0000   1.0000   1.0000   1.0000
     1.0000   1.0000   1.0000   1.0000   1.0000   1.0000   1.0000   1.0000
     0.0000   0.0000   0.0000   0.0000   0.0000   0.0000   0.0000   0.0000
     0.0000   0.0000   0.0000   0.0000   0.0000   0.0000   0.0000   0.0000
     0.0000   0.0000   0.0000   0.0000   0.0000   0.0000   0.0000   0.0000
     0.0000   0.0000   0.0000   0.0000   0.0000   0.0000   0.0000   0.0000
     0.0000   0.0000

          k = 0.4375 0.4375 0.1262 ( 18761 PWs)   bands (ev):

   -19.8013 -19.8005 -19.7547 -19.7539  -6.5178  -6.5083  -6.4121  -6.4064
    -5.8130  -5.7946  -5.6577  -5.6489  -4.0065  -3.9598  -3.9548  -3.9108
    -3.3230  -3.3013  -3.2259  -3.1746  -2.8963  -2.8424  -2.5065  -2.5032
     4.3669   4.3700   5.9967   5.9973   6.2283   6.2304   7.3560   7.3578
     7.3804   7.3888   8.1689   8.1719   8.4633   8.4710   8.4747   8.4942
     8.8084   8.8252   9.6236   9.6391   9.7092   9.7214  10.1426  10.1434
    10.7166  10.7256  10.7745  10.7854  10.8065  10.8172  11.0602  11.0751
    13.8985  13.9003  14.7071  14.7138  14.7411  14.7599  14.7607  14.7733
    14.8189  14.8264  14.8375  14.8473  14.8789  14.8891  14.8999  14.9078
    15.0465  15.0490  15.1022  15.1024  15.1029  15.1038  15.2544  15.2546
    15.2818  15.2931  15.3231  15.3347  15.3713  15.3718  15.7453  15.7706
    16.2179  16.3615

     occupation numbers 
     1.0000   1.0000   1.0000   1.0000   1.0000   1.0000   1.0000   1.0000
     1.0000   1.0000   1.0000   1.0000   1.0000   1.0000   1.0000   1.0000
     1.0000   1.0000   1.0000   1.0000   1.0000   1.0000   1.0000   1.0000
     1.0000   1.0000   1.0000   1.0000   1.0000   1.0000   1.0000   1.0000
     1.0000   1.0000   1.0000   1.0000   1.0000   1.0000   1.0000   1.0000
     1.0000   1.0000   1.0000   1.0000   1.0000   1.0000   1.0000   1.0000
     1.0000   1.0000   1.0000   1.0000   1.0000   1.0000   1.0000   1.0000
     0.0000   0.0000   0.0000   0.0000   0.0000   0.0000   0.0000   0.0000
     0.0000   0.0000   0.0000   0.0000   0.0000   0.0000   0.0000   0.0000
     0.0000   0.0000   0.0000   0.0000   0.0000   0.0000   0.0000   0.0000
     0.0000   0.0000   0.0000   0.0000   0.0000   0.0000   0.0000   0.0000
     0.0000   0.0000

     the Fermi energy is    12.0057 ev
     (compare with:    12.0057 eV, computed in scf)

     Writing all to output data dir ./La2CuO4/La2CuO4.save/
 
     init_run     :      1.44s CPU      1.71s WALL (       1 calls)
     electrons    :    401.56s CPU    406.45s WALL (       1 calls)

     Called by init_run:
     wfcinit      :      0.00s CPU      0.00s WALL (       1 calls)
     wfcinit:atom :      0.13s CPU      0.16s WALL (      40 calls)
     wfcinit:wfcr :      8.32s CPU      8.46s WALL (      40 calls)
     potinit      :      0.30s CPU      0.30s WALL (       1 calls)
     hinit0       :      0.30s CPU      0.32s WALL (       1 calls)

     Called by electrons:
     c_bands      :    401.43s CPU    406.32s WALL (       1 calls)
     v_of_rho     :      0.01s CPU      0.01s WALL (       1 calls)
     v_h          :      0.01s CPU      0.01s WALL (       1 calls)
     v_xc         :      0.00s CPU      0.00s WALL (       1 calls)
     newd         :      0.78s CPU      1.02s WALL (       1 calls)
     PAW_pot      :      0.27s CPU      0.27s WALL (       1 calls)

     Called by c_bands:
     init_us_2    :      0.12s CPU      0.16s WALL (      40 calls)
     init_us_2:cp :      0.12s CPU      0.16s WALL (      40 calls)
     cegterg      :    390.56s CPU    395.22s WALL (     223 calls)

     Called by sum_band:

     Called by *egterg:
     cdiaghg      :     23.89s CPU     24.08s WALL (    4300 calls)
     cegterg:over :     41.59s CPU     41.95s WALL (    4260 calls)
     cegterg:upda :     25.13s CPU     25.19s WALL (    4260 calls)
     cegterg:last :     63.19s CPU     63.21s WALL (    1878 calls)
     h_psi        :    201.45s CPU    204.83s WALL (    4523 calls)
     s_psi        :     31.89s CPU     32.31s WALL (    4523 calls)
     g_psi        :      1.42s CPU      1.43s WALL (    4260 calls)

     Called by h_psi:
     h_psi:calbec :     32.00s CPU     32.31s WALL (    4523 calls)
     vloc_psi     :    134.61s CPU    137.45s WALL (    4523 calls)
     add_vuspsi   :     32.24s CPU     32.31s WALL (    4523 calls)

     General routines
     calbec       :     31.99s CPU     32.30s WALL (    4523 calls)
     fft          :      0.02s CPU      0.03s WALL (       6 calls)
     ffts         :      0.00s CPU      0.00s WALL (       1 calls)
     fftw         :    102.65s CPU    104.78s WALL (  345614 calls)
     interpolate  :      0.00s CPU      0.00s WALL (       1 calls)
     davcio       :      0.12s CPU      0.18s WALL (      80 calls)
 
     Parallel routines

     PAW routines
     PAW_pot      :      0.27s CPU      0.27s WALL (       1 calls)
 
     PWSCF        :   6m43.35s CPU   6m49.17s WALL

 
   This run was terminated on:  22:38:50  30Dec2023            

=------------------------------------------------------------------------------=
   JOB DONE.
=------------------------------------------------------------------------------=
