
     Program DOS v.7.2 starts on 11Dec2023 at 21:11:49 

     This program is part of the open-source Quantum ESPRESSO suite
     for quantum simulation of materials; please cite
         "P. Giannozzi et al., J. Phys.:Condens. Matter 21 395502 (2009);
         "P. Giannozzi et al., J. Phys.:Condens. Matter 29 465901 (2017);
         "P. Giannozzi et al., J. Chem. Phys. 152 154105 (2020);
          URL http://www.quantum-espresso.org", 
     in publications or presentations arising from this work. More details at
     http://www.quantum-espresso.org/quote

     Parallel version (MPI), running on     4 processors

     MPI processes distributed on     1 nodes
     R & G space division:  proc/nbgrp/npool/nimage =       4
     2475 MiB available memory on the printing compute node when the environment starts
 

     Reading xml data from directory:

     ./YBCO6.scf/YBCO6.save/

     IMPORTANT: XC functional enforced from input :
     Exchange-correlation= PBE
                           (   1   4   3   4   0   0   0)
     Any further DFT definition will be discarded
     Please, verify this is what you really want

 
     Parallelization info
     --------------------
     sticks:   dense  smooth     PW     G-vecs:    dense   smooth      PW
     Min        3151    1573    417               405355   143285   19529
     Max        3152    1574    418               405356   143290   19532
     Sum       12605    6293   1669              1621421   573149   78123
 
     Using Slab Decomposition
 

     negative rho (up, down):  3.473E-01 3.473E-01

     Tetrahedra used

 
     DOS          :   4m53.47s CPU   4m55.33s WALL

 
   This run was terminated on:  21:16:44  11Dec2023            

=------------------------------------------------------------------------------=
   JOB DONE.
=------------------------------------------------------------------------------=
