
     Program PWSCF v.7.2 starts on 27Dec2023 at  0: 1:48 

     This program is part of the open-source Quantum ESPRESSO suite
     for quantum simulation of materials; please cite
         "P. Giannozzi et al., J. Phys.:Condens. Matter 21 395502 (2009);
         "P. Giannozzi et al., J. Phys.:Condens. Matter 29 465901 (2017);
         "P. Giannozzi et al., J. Chem. Phys. 152 154105 (2020);
          URL http://www.quantum-espresso.org", 
     in publications or presentations arising from this work. More details at
     http://www.quantum-espresso.org/quote

     Parallel version (MPI), running on     4 processors

     MPI processes distributed on     1 nodes
     14504 MiB available memory on the printing compute node when the environment starts
 
     Waiting for input...
     Reading input from standard input
Warning: card &CELL ignored
Warning: card / ignored

     Current dimensions of program PWSCF are:
     Max number of different atomic species (ntypx) = 10
     Max number of k-points (npk) =  40000
     Max angular momentum in pseudopotentials (lmaxx) =  4
     Found identity + (  0.5000  0.5000  0.0000) symmetry
     This is a supercell, fractional translations are disabled
 
     R & G space division:  proc/nbgrp/npool/nimage =       4
     Subspace diagonalization in iterative solution of the eigenvalue problem:
     one sub-group per band group will be used
     custom distributed-memory algorithm (size of sub-group:  2*  2 procs)

 
     Parallelization info
     --------------------
     sticks:   dense  smooth     PW     G-vecs:    dense   smooth      PW
     Min        3113    1555    391               407767   144185   18033
     Max        3114    1556    392               407769   144196   18038
     Sum       12453    6221   1565              1631073   576751   72137
 
     Using Slab Decomposition
 


     bravais-lattice index     =            6
     lattice parameter (alat)  =      14.7534  a.u.
     unit-cell volume          =    4999.6511 (a.u.)^3
     number of atoms/cell      =           48
     number of atomic types    =            6
     number of electrons       =       496.00
     number of Kohn-Sham states=          298
     kinetic-energy cutoff     =      90.0000  Ry
     charge density cutoff     =     720.0000  Ry
     scf convergence threshold =      1.0E-08
     mixing beta               =       0.1000
     number of iterations used =            8  plain     mixing
     Exchange-correlation= SLA  PW   PBE  PBE
                           (   1   4   3   4   0   0   0)
     Hubbard projectors: ortho-atomic
     Hubbard parameters of DFT+U (Dudarev formulation) in eV:
     U(Cu1-3d) =  2.5000
     U(Cu2-3d) =  2.5000

     Internal variables: lda_plus_u = T, lda_plus_u_kind = 0

     celldm(1)=  14.753444  celldm(2)=   0.000000  celldm(3)=   1.556895
     celldm(4)=   0.000000  celldm(5)=   0.000000  celldm(6)=   0.000000

     crystal axes: (cart. coord. in units of alat)
               a(1) = (   1.000000   0.000000   0.000000 )  
               a(2) = (   0.000000   1.000000   0.000000 )  
               a(3) = (   0.000000   0.000000   1.556895 )  

     reciprocal axes: (cart. coord. in units 2 pi/alat)
               b(1) = (  1.000000  0.000000  0.000000 )  
               b(2) = (  0.000000  1.000000  0.000000 )  
               b(3) = (  0.000000  0.000000  0.642304 )  


     PseudoPot. # 1 for Y  read from file:
     ~/q-e/pseudo/all_pbe_UPF_v1.5/y_pbe_v1.4.uspp.F.UPF
     MD5 check sum: Not computed, couldn't open file
     Pseudo is Ultrasoft + core correction, Zval = 11.0
     Generated by new atomic code, or converted to UPF format
     Using radial grid of  885 points,  6 beta functions with: 
                l(1) =   0
                l(2) =   0
                l(3) =   1
                l(4) =   1
                l(5) =   2
                l(6) =   2
     Q(r) pseudized with  8 coefficients,  rinner =    1.200   1.200   1.200
                                                       1.200   1.200

     PseudoPot. # 2 for Ba read from file:
     ~/q-e/pseudo/all_pbe_UPF_v1.5/ba_pbe_v1.uspp.F.UPF
     MD5 check sum: Not computed, couldn't open file
     Pseudo is Ultrasoft + core correction, Zval = 10.0
     Generated by new atomic code, or converted to UPF format
     Using radial grid of  907 points,  7 beta functions with: 
                l(1) =   0
                l(2) =   0
                l(3) =   1
                l(4) =   1
                l(5) =   2
                l(6) =   2
                l(7) =   3
     Q(r) pseudized with  6 coefficients,  rinner =    1.700   1.700   1.700
                                                       1.700   1.700   1.700
                                                       1.700

     PseudoPot. # 3 for Cu read from file:
     ~/q-e/pseudo/all_pbe_UPF_v1.5/cu_pbe_v1.2.uspp.F.UPF
     MD5 check sum: Not computed, couldn't open file
     Pseudo is Ultrasoft + core correction, Zval = 19.0
     Generated by new atomic code, or converted to UPF format
     Using radial grid of  867 points,  6 beta functions with: 
                l(1) =   0
                l(2) =   0
                l(3) =   1
                l(4) =   1
                l(5) =   2
                l(6) =   2
     Q(r) pseudized with  8 coefficients,  rinner =    1.150   1.150   1.150
                                                       1.150   1.150

     PseudoPot. # 4 for Cu read from file:
     ~/q-e/pseudo/all_pbe_UPF_v1.5/cu_pbe_v1.2.uspp.F.UPF
     MD5 check sum: Not computed, couldn't open file
     Pseudo is Ultrasoft + core correction, Zval = 19.0
     Generated by new atomic code, or converted to UPF format
     Using radial grid of  867 points,  6 beta functions with: 
                l(1) =   0
                l(2) =   0
                l(3) =   1
                l(4) =   1
                l(5) =   2
                l(6) =   2
     Q(r) pseudized with  8 coefficients,  rinner =    1.150   1.150   1.150
                                                       1.150   1.150

     PseudoPot. # 5 for Cu read from file:
     ~/q-e/pseudo/all_pbe_UPF_v1.5/cu_pbe_v1.2.uspp.F.UPF
     MD5 check sum: Not computed, couldn't open file
     Pseudo is Ultrasoft + core correction, Zval = 19.0
     Generated by new atomic code, or converted to UPF format
     Using radial grid of  867 points,  6 beta functions with: 
                l(1) =   0
                l(2) =   0
                l(3) =   1
                l(4) =   1
                l(5) =   2
                l(6) =   2
     Q(r) pseudized with  8 coefficients,  rinner =    1.150   1.150   1.150
                                                       1.150   1.150

     PseudoPot. # 6 for O  read from file:
     ~/q-e/pseudo/all_pbe_UPF_v1.5/o_pbe_v1.2.uspp.F.UPF
     MD5 check sum: Not computed, couldn't open file
     Pseudo is Ultrasoft + core correction, Zval =  6.0
     Generated by new atomic code, or converted to UPF format
     Using radial grid of  737 points,  5 beta functions with: 
                l(1) =   0
                l(2) =   0
                l(3) =   1
                l(4) =   1
                l(5) =   2
     Q(r) pseudized with  8 coefficients,  rinner =    0.900   0.900   0.900
                                                       0.900   0.900

     atomic species   valence    mass     pseudopotential
     Y                11.00    88.90584     Y ( 1.00)
     Ba               10.00   137.32700     Ba( 1.00)
     Cu               19.00    63.54600     Cu( 1.00)
     Cu1              19.00    63.54600     Cu( 1.00)
     Cu2              19.00    63.54600     Cu( 1.00)
     O                 6.00    15.99900     O ( 1.00)

     Starting magnetic structure 
     atomic species   magnetization
     Y               0.000
     Ba              0.000
     Cu              0.000
     Cu1             0.100
     Cu2            -0.100
     O               0.000

      4 Sym. Ops. (no inversion) found


                                    s                        frac. trans.

      isym =  1     identity                                     

 cryst.   s( 1) = (     1          0          0      )
                  (     0          1          0      )
                  (     0          0          1      )

 cart.    s( 1) = (  1.0000000  0.0000000  0.0000000 )
                  (  0.0000000  1.0000000  0.0000000 )
                  (  0.0000000  0.0000000  1.0000000 )


      isym =  2     180 deg rotation - cart. axis [0,0,1]        

 cryst.   s( 2) = (    -1          0          0      )
                  (     0         -1          0      )
                  (     0          0          1      )

 cart.    s( 2) = ( -1.0000000  0.0000000  0.0000000 )
                  (  0.0000000 -1.0000000  0.0000000 )
                  (  0.0000000  0.0000000  1.0000000 )


      isym =  3     inv. 180 deg rotation - cart. axis [0,1,0]   

 cryst.   s( 3) = (     1          0          0      )
                  (     0         -1          0      )
                  (     0          0          1      )

 cart.    s( 3) = (  1.0000000  0.0000000  0.0000000 )
                  (  0.0000000 -1.0000000  0.0000000 )
                  (  0.0000000  0.0000000  1.0000000 )


      isym =  4     inv. 180 deg rotation - cart. axis [1,0,0]   

 cryst.   s( 4) = (    -1          0          0      )
                  (     0          1          0      )
                  (     0          0          1      )

 cart.    s( 4) = ( -1.0000000  0.0000000  0.0000000 )
                  (  0.0000000  1.0000000  0.0000000 )
                  (  0.0000000  0.0000000  1.0000000 )


     point group C_2v (mm2) 
     there are  4 classes
     the character table:

       E     C2    s_v   s_v' 
A_1    1.00  1.00  1.00  1.00
A_2    1.00  1.00 -1.00 -1.00
B_1    1.00 -1.00  1.00 -1.00
B_2    1.00 -1.00 -1.00  1.00

     the symmetry operations in each class and the name of the first element:

     E        1
          identity                                               
     C2       2
          180 deg rotation - cart. axis [0,0,1]                  
     s_v      4
          inv. 180 deg rotation - cart. axis [1,0,0]             
     s_v'     3
          inv. 180 deg rotation - cart. axis [0,1,0]             

   Cartesian axes

     site n.     atom                  positions (alat units)
         1        Y      tau(   1) = (   0.2500001   0.2500001   0.7784475  )
         2        Y      tau(   2) = (   0.2500001   0.7499999   0.7784475  )
         3        Y      tau(   3) = (   0.7499999   0.2500001   0.7784475  )
         4        Y      tau(   4) = (   0.7499999   0.7499999   0.7784475  )
         5        Ba     tau(   5) = (   0.2499997   0.2499998   0.3202107  )
         6        Ba     tau(   6) = (   0.2499997   0.2499998   1.2366849  )
         7        Ba     tau(   7) = (   0.2499997   0.7500002   0.3202107  )
         8        Ba     tau(   8) = (   0.2499997   0.7500002   1.2366849  )
         9        Ba     tau(   9) = (   0.7500003   0.2499998   0.3202107  )
        10        Ba     tau(  10) = (   0.7500003   0.2499998   1.2366849  )
        11        Ba     tau(  11) = (   0.7500003   0.7500002   0.3202107  )
        12        Ba     tau(  12) = (   0.7500003   0.7500002   1.2366849  )
        13        Cu     tau(  13) = (   0.0000000   0.0000000   0.0000003  )
        14        Cu1    tau(  14) = (   0.0000000   0.0000000   0.5826016  )
        15        Cu2    tau(  15) = (   0.0000000   0.0000000   0.9742935  )
        16        Cu     tau(  16) = (   0.0000000   0.5000000   0.0000004  )
        17        Cu2    tau(  17) = (   0.0000000   0.5000000   0.5826023  )
        18        Cu1    tau(  18) = (   0.0000000   0.5000000   0.9742924  )
        19        Cu     tau(  19) = (   0.5000000   0.0000000   0.0000003  )
        20        Cu2    tau(  20) = (   0.5000000   0.0000000   0.5826022  )
        21        Cu1    tau(  21) = (   0.5000000   0.0000000   0.9742926  )
        22        Cu     tau(  22) = (   0.5000000   0.5000000   0.0000004  )
        23        Cu1    tau(  23) = (   0.5000000   0.5000000   0.5826026  )
        24        Cu2    tau(  24) = (   0.5000000   0.5000000   0.9742925  )
        25        O      tau(  25) = (   0.0000000   0.0000000   0.2292807  )
        26        O      tau(  26) = (   0.0000000   0.0000000   1.3276159  )
        27        O      tau(  27) = (   0.5000000   0.0000000   0.2292811  )
        28        O      tau(  28) = (   0.5000000   0.0000000   1.3276154  )
        29        O      tau(  29) = (   0.0000000   0.5000000   0.2292814  )
        30        O      tau(  30) = (   0.0000000   0.5000000   1.3276153  )
        31        O      tau(  31) = (   0.5000000   0.5000000   0.2292814  )
        32        O      tau(  32) = (   0.5000000   0.5000000   1.3276151  )
        33        O      tau(  33) = (   0.2499993   0.0000000   0.5927738  )
        34        O      tau(  34) = (   0.2499993   0.0000000   0.9641212  )
        35        O      tau(  35) = (   0.2499993   0.5000000   0.5927739  )
        36        O      tau(  36) = (   0.2499993   0.5000000   0.9641211  )
        37        O      tau(  37) = (   0.7500007   0.0000000   0.5927738  )
        38        O      tau(  38) = (   0.7500007   0.0000000   0.9641212  )
        39        O      tau(  39) = (   0.7500007   0.5000000   0.5927739  )
        40        O      tau(  40) = (   0.7500007   0.5000000   0.9641211  )
        41        O      tau(  41) = (   0.0000000   0.2499993   0.5928121  )
        42        O      tau(  42) = (   0.0000000   0.2499993   0.9640829  )
        43        O      tau(  43) = (   0.5000000   0.2499993   0.5928122  )
        44        O      tau(  44) = (   0.5000000   0.2499993   0.9640828  )
        45        O      tau(  45) = (   0.0000000   0.7500007   0.5928121  )
        46        O      tau(  46) = (   0.0000000   0.7500007   0.9640829  )
        47        O      tau(  47) = (   0.5000000   0.7500007   0.5928122  )
        48        O      tau(  48) = (   0.5000000   0.7500007   0.9640828  )

   Crystallographic axes

     site n.     atom                  positions (cryst. coord.)
         1        Y      tau(   1) = (  0.2500001  0.2500001  0.4999998  )
         2        Y      tau(   2) = (  0.2500001  0.7499999  0.4999998  )
         3        Y      tau(   3) = (  0.7499999  0.2500001  0.4999998  )
         4        Y      tau(   4) = (  0.7499999  0.7499999  0.4999998  )
         5        Ba     tau(   5) = (  0.2499997  0.2499998  0.2056726  )
         6        Ba     tau(   6) = (  0.2499997  0.2499998  0.7943275  )
         7        Ba     tau(   7) = (  0.2499997  0.7500002  0.2056726  )
         8        Ba     tau(   8) = (  0.2499997  0.7500002  0.7943275  )
         9        Ba     tau(   9) = (  0.7500003  0.2499998  0.2056726  )
        10        Ba     tau(  10) = (  0.7500003  0.2499998  0.7943275  )
        11        Ba     tau(  11) = (  0.7500003  0.7500002  0.2056726  )
        12        Ba     tau(  12) = (  0.7500003  0.7500002  0.7943275  )
        13        Cu     tau(  13) = (  0.0000000  0.0000000  0.0000002  )
        14        Cu1    tau(  14) = (  0.0000000  0.0000000  0.3742073  )
        15        Cu2    tau(  15) = (  0.0000000  0.0000000  0.6257925  )
        16        Cu     tau(  16) = (  0.0000000  0.5000000  0.0000003  )
        17        Cu2    tau(  17) = (  0.0000000  0.5000000  0.3742077  )
        18        Cu1    tau(  18) = (  0.0000000  0.5000000  0.6257918  )
        19        Cu     tau(  19) = (  0.5000000  0.0000000  0.0000002  )
        20        Cu2    tau(  20) = (  0.5000000  0.0000000  0.3742077  )
        21        Cu1    tau(  21) = (  0.5000000  0.0000000  0.6257919  )
        22        Cu     tau(  22) = (  0.5000000  0.5000000  0.0000002  )
        23        Cu1    tau(  23) = (  0.5000000  0.5000000  0.3742079  )
        24        Cu2    tau(  24) = (  0.5000000  0.5000000  0.6257919  )
        25        O      tau(  25) = (  0.0000000  0.0000000  0.1472679  )
        26        O      tau(  26) = (  0.0000000  0.0000000  0.8527328  )
        27        O      tau(  27) = (  0.5000000  0.0000000  0.1472682  )
        28        O      tau(  28) = (  0.5000000  0.0000000  0.8527325  )
        29        O      tau(  29) = (  0.0000000  0.5000000  0.1472683  )
        30        O      tau(  30) = (  0.0000000  0.5000000  0.8527325  )
        31        O      tau(  31) = (  0.5000000  0.5000000  0.1472684  )
        32        O      tau(  32) = (  0.5000000  0.5000000  0.8527324  )
        33        O      tau(  33) = (  0.2499993  0.0000000  0.3807409  )
        34        O      tau(  34) = (  0.2499993  0.0000000  0.6192588  )
        35        O      tau(  35) = (  0.2499993  0.5000000  0.3807410  )
        36        O      tau(  36) = (  0.2499993  0.5000000  0.6192588  )
        37        O      tau(  37) = (  0.7500007  0.0000000  0.3807409  )
        38        O      tau(  38) = (  0.7500007  0.0000000  0.6192588  )
        39        O      tau(  39) = (  0.7500007  0.5000000  0.3807410  )
        40        O      tau(  40) = (  0.7500007  0.5000000  0.6192588  )
        41        O      tau(  41) = (  0.0000000  0.2499993  0.3807655  )
        42        O      tau(  42) = (  0.0000000  0.2499993  0.6192342  )
        43        O      tau(  43) = (  0.5000000  0.2499993  0.3807656  )
        44        O      tau(  44) = (  0.5000000  0.2499993  0.6192341  )
        45        O      tau(  45) = (  0.0000000  0.7500007  0.3807655  )
        46        O      tau(  46) = (  0.0000000  0.7500007  0.6192342  )
        47        O      tau(  47) = (  0.5000000  0.7500007  0.3807656  )
        48        O      tau(  48) = (  0.5000000  0.7500007  0.6192341  )

     number of k points=     1  Methfessel-Paxton smearing, width (Ry)=  0.0500
                       cart. coord. in units 2pi/alat
        k(    1) = (   0.0000000   0.0000000   0.0000000), wk =   1.0000000

                       cryst. coord.
        k(    1) = (   0.0000000   0.0000000   0.0000000), wk =   1.0000000

     Dense  grid:  1631073 G-vectors     FFT dimensions: ( 128, 128, 200)

     Smooth grid:   576751 G-vectors     FFT dimensions: (  90,  90, 144)

     Dynamical RAM for                 wfc:      81.94 MB

     Dynamical RAM for     wfc (w. buffer):     245.83 MB

     Dynamical RAM for             U proj.:      11.00 MB

     Dynamical RAM for  U proj. (w. buff.):      33.00 MB

     Dynamical RAM for           str. fact:      37.33 MB

     Dynamical RAM for           local pot:       0.00 MB

     Dynamical RAM for          nlocal pot:     219.98 MB

     Dynamical RAM for                qrad:      24.11 MB

     Dynamical RAM for          rho,v,vnew:      74.83 MB

     Dynamical RAM for               rhoin:      24.94 MB

     Dynamical RAM for            rho*nmix:     199.10 MB

     Dynamical RAM for           G-vectors:      24.43 MB

     Dynamical RAM for          h,s,v(r/c):       4.07 MB

     Dynamical RAM for          <psi|beta>:       3.64 MB

     Dynamical RAM for                 psi:     163.89 MB

     Dynamical RAM for                hpsi:     163.89 MB

     Dynamical RAM for                spsi:     163.89 MB

     Dynamical RAM for      wfcinit/wfcrot:     228.20 MB

     Dynamical RAM for           addusdens:    2345.71 MB

     Dynamical RAM for          addusforce:    2632.28 MB

     Estimated static dynamical RAM per process >     765.51 MB

     Estimated max dynamical RAM per process >       3.51 GB

     Estimated total dynamical RAM >      14.05 GB
     Generating pointlists ...
     new r_m :   0.1284 (alat units)  1.8950 (a.u.) for type    1
     new r_m :   0.1506 (alat units)  2.2217 (a.u.) for type    2
     new r_m :   0.0946 (alat units)  1.3954 (a.u.) for type    3
     new r_m :   0.1032 (alat units)  1.5227 (a.u.) for type    4
     new r_m :   0.1032 (alat units)  1.5227 (a.u.) for type    5
     new r_m :   0.0946 (alat units)  1.3954 (a.u.) for type    6

     Initial potential from superposition of free atoms

     starting charge     483.8621, renormalised to     496.0000

     negative rho (up, down):  3.873E-01 3.873E-01

     HUBBARD ENERGY =    0.8820  (Ry)

     STARTING HUBBARD OCCUPATIONS:

     =================== HUBBARD OCCUPATIONS ===================
     ------------------------ ATOM   14 ------------------------
     Tr[ns( 14)] (up, down, total) =   5.00000  3.00000  8.00000
     Atomic magnetic moment for atom  14 =   2.00000
     SPIN  1
     eigenvalues:
       1.000  1.000  1.000  1.000  1.000
     eigenvectors (columns):
       1.000  0.000  0.000  0.000  0.000
       0.000  1.000  0.000  0.000  0.000
       0.000  0.000  1.000  0.000  0.000
       0.000  0.000  0.000  1.000  0.000
       0.000  0.000  0.000  0.000  1.000
     occupation matrix ns (before diag.):
       1.000  0.000  0.000  0.000  0.000
       0.000  1.000  0.000  0.000  0.000
       0.000  0.000  1.000  0.000  0.000
       0.000  0.000  0.000  1.000  0.000
       0.000  0.000  0.000  0.000  1.000
     SPIN  2
     eigenvalues:
       0.600  0.600  0.600  0.600  0.600
     eigenvectors (columns):
       1.000  0.000  0.000  0.000  0.000
       0.000  1.000  0.000  0.000  0.000
       0.000  0.000  1.000  0.000  0.000
       0.000  0.000  0.000  1.000  0.000
       0.000  0.000  0.000  0.000  1.000
     occupation matrix ns (before diag.):
       0.600  0.000  0.000  0.000  0.000
       0.000  0.600  0.000  0.000  0.000
       0.000  0.000  0.600  0.000  0.000
       0.000  0.000  0.000  0.600  0.000
       0.000  0.000  0.000  0.000  0.600
     ------------------------ ATOM   15 ------------------------
     Tr[ns( 15)] (up, down, total) =   3.00000  5.00000  8.00000
     Atomic magnetic moment for atom  15 =  -2.00000
     SPIN  1
     eigenvalues:
       0.600  0.600  0.600  0.600  0.600
     eigenvectors (columns):
       1.000  0.000  0.000  0.000  0.000
       0.000  1.000  0.000  0.000  0.000
       0.000  0.000  1.000  0.000  0.000
       0.000  0.000  0.000  1.000  0.000
       0.000  0.000  0.000  0.000  1.000
     occupation matrix ns (before diag.):
       0.600  0.000  0.000  0.000  0.000
       0.000  0.600  0.000  0.000  0.000
       0.000  0.000  0.600  0.000  0.000
       0.000  0.000  0.000  0.600  0.000
       0.000  0.000  0.000  0.000  0.600
     SPIN  2
     eigenvalues:
       1.000  1.000  1.000  1.000  1.000
     eigenvectors (columns):
       1.000  0.000  0.000  0.000  0.000
       0.000  1.000  0.000  0.000  0.000
       0.000  0.000  1.000  0.000  0.000
       0.000  0.000  0.000  1.000  0.000
       0.000  0.000  0.000  0.000  1.000
     occupation matrix ns (before diag.):
       1.000  0.000  0.000  0.000  0.000
       0.000  1.000  0.000  0.000  0.000
       0.000  0.000  1.000  0.000  0.000
       0.000  0.000  0.000  1.000  0.000
       0.000  0.000  0.000  0.000  1.000
     ------------------------ ATOM   17 ------------------------
     Tr[ns( 17)] (up, down, total) =   3.00000  5.00000  8.00000
     Atomic magnetic moment for atom  17 =  -2.00000
     SPIN  1
     eigenvalues:
       0.600  0.600  0.600  0.600  0.600
     eigenvectors (columns):
       1.000  0.000  0.000  0.000  0.000
       0.000  1.000  0.000  0.000  0.000
       0.000  0.000  1.000  0.000  0.000
       0.000  0.000  0.000  1.000  0.000
       0.000  0.000  0.000  0.000  1.000
     occupation matrix ns (before diag.):
       0.600  0.000  0.000  0.000  0.000
       0.000  0.600  0.000  0.000  0.000
       0.000  0.000  0.600  0.000  0.000
       0.000  0.000  0.000  0.600  0.000
       0.000  0.000  0.000  0.000  0.600
     SPIN  2
     eigenvalues:
       1.000  1.000  1.000  1.000  1.000
     eigenvectors (columns):
       1.000  0.000  0.000  0.000  0.000
       0.000  1.000  0.000  0.000  0.000
       0.000  0.000  1.000  0.000  0.000
       0.000  0.000  0.000  1.000  0.000
       0.000  0.000  0.000  0.000  1.000
     occupation matrix ns (before diag.):
       1.000  0.000  0.000  0.000  0.000
       0.000  1.000  0.000  0.000  0.000
       0.000  0.000  1.000  0.000  0.000
       0.000  0.000  0.000  1.000  0.000
       0.000  0.000  0.000  0.000  1.000
     ------------------------ ATOM   18 ------------------------
     Tr[ns( 18)] (up, down, total) =   5.00000  3.00000  8.00000
     Atomic magnetic moment for atom  18 =   2.00000
     SPIN  1
     eigenvalues:
       1.000  1.000  1.000  1.000  1.000
     eigenvectors (columns):
       1.000  0.000  0.000  0.000  0.000
       0.000  1.000  0.000  0.000  0.000
       0.000  0.000  1.000  0.000  0.000
       0.000  0.000  0.000  1.000  0.000
       0.000  0.000  0.000  0.000  1.000
     occupation matrix ns (before diag.):
       1.000  0.000  0.000  0.000  0.000
       0.000  1.000  0.000  0.000  0.000
       0.000  0.000  1.000  0.000  0.000
       0.000  0.000  0.000  1.000  0.000
       0.000  0.000  0.000  0.000  1.000
     SPIN  2
     eigenvalues:
       0.600  0.600  0.600  0.600  0.600
     eigenvectors (columns):
       1.000  0.000  0.000  0.000  0.000
       0.000  1.000  0.000  0.000  0.000
       0.000  0.000  1.000  0.000  0.000
       0.000  0.000  0.000  1.000  0.000
       0.000  0.000  0.000  0.000  1.000
     occupation matrix ns (before diag.):
       0.600  0.000  0.000  0.000  0.000
       0.000  0.600  0.000  0.000  0.000
       0.000  0.000  0.600  0.000  0.000
       0.000  0.000  0.000  0.600  0.000
       0.000  0.000  0.000  0.000  0.600
     ------------------------ ATOM   20 ------------------------
     Tr[ns( 20)] (up, down, total) =   3.00000  5.00000  8.00000
     Atomic magnetic moment for atom  20 =  -2.00000
     SPIN  1
     eigenvalues:
       0.600  0.600  0.600  0.600  0.600
     eigenvectors (columns):
       1.000  0.000  0.000  0.000  0.000
       0.000  1.000  0.000  0.000  0.000
       0.000  0.000  1.000  0.000  0.000
       0.000  0.000  0.000  1.000  0.000
       0.000  0.000  0.000  0.000  1.000
     occupation matrix ns (before diag.):
       0.600  0.000  0.000  0.000  0.000
       0.000  0.600  0.000  0.000  0.000
       0.000  0.000  0.600  0.000  0.000
       0.000  0.000  0.000  0.600  0.000
       0.000  0.000  0.000  0.000  0.600
     SPIN  2
     eigenvalues:
       1.000  1.000  1.000  1.000  1.000
     eigenvectors (columns):
       1.000  0.000  0.000  0.000  0.000
       0.000  1.000  0.000  0.000  0.000
       0.000  0.000  1.000  0.000  0.000
       0.000  0.000  0.000  1.000  0.000
       0.000  0.000  0.000  0.000  1.000
     occupation matrix ns (before diag.):
       1.000  0.000  0.000  0.000  0.000
       0.000  1.000  0.000  0.000  0.000
       0.000  0.000  1.000  0.000  0.000
       0.000  0.000  0.000  1.000  0.000
       0.000  0.000  0.000  0.000  1.000
     ------------------------ ATOM   21 ------------------------
     Tr[ns( 21)] (up, down, total) =   5.00000  3.00000  8.00000
     Atomic magnetic moment for atom  21 =   2.00000
     SPIN  1
     eigenvalues:
       1.000  1.000  1.000  1.000  1.000
     eigenvectors (columns):
       1.000  0.000  0.000  0.000  0.000
       0.000  1.000  0.000  0.000  0.000
       0.000  0.000  1.000  0.000  0.000
       0.000  0.000  0.000  1.000  0.000
       0.000  0.000  0.000  0.000  1.000
     occupation matrix ns (before diag.):
       1.000  0.000  0.000  0.000  0.000
       0.000  1.000  0.000  0.000  0.000
       0.000  0.000  1.000  0.000  0.000
       0.000  0.000  0.000  1.000  0.000
       0.000  0.000  0.000  0.000  1.000
     SPIN  2
     eigenvalues:
       0.600  0.600  0.600  0.600  0.600
     eigenvectors (columns):
       1.000  0.000  0.000  0.000  0.000
       0.000  1.000  0.000  0.000  0.000
       0.000  0.000  1.000  0.000  0.000
       0.000  0.000  0.000  1.000  0.000
       0.000  0.000  0.000  0.000  1.000
     occupation matrix ns (before diag.):
       0.600  0.000  0.000  0.000  0.000
       0.000  0.600  0.000  0.000  0.000
       0.000  0.000  0.600  0.000  0.000
       0.000  0.000  0.000  0.600  0.000
       0.000  0.000  0.000  0.000  0.600
     ------------------------ ATOM   23 ------------------------
     Tr[ns( 23)] (up, down, total) =   5.00000  3.00000  8.00000
     Atomic magnetic moment for atom  23 =   2.00000
     SPIN  1
     eigenvalues:
       1.000  1.000  1.000  1.000  1.000
     eigenvectors (columns):
       1.000  0.000  0.000  0.000  0.000
       0.000  1.000  0.000  0.000  0.000
       0.000  0.000  1.000  0.000  0.000
       0.000  0.000  0.000  1.000  0.000
       0.000  0.000  0.000  0.000  1.000
     occupation matrix ns (before diag.):
       1.000  0.000  0.000  0.000  0.000
       0.000  1.000  0.000  0.000  0.000
       0.000  0.000  1.000  0.000  0.000
       0.000  0.000  0.000  1.000  0.000
       0.000  0.000  0.000  0.000  1.000
     SPIN  2
     eigenvalues:
       0.600  0.600  0.600  0.600  0.600
     eigenvectors (columns):
       1.000  0.000  0.000  0.000  0.000
       0.000  1.000  0.000  0.000  0.000
       0.000  0.000  1.000  0.000  0.000
       0.000  0.000  0.000  1.000  0.000
       0.000  0.000  0.000  0.000  1.000
     occupation matrix ns (before diag.):
       0.600  0.000  0.000  0.000  0.000
       0.000  0.600  0.000  0.000  0.000
       0.000  0.000  0.600  0.000  0.000
       0.000  0.000  0.000  0.600  0.000
       0.000  0.000  0.000  0.000  0.600
     ------------------------ ATOM   24 ------------------------
     Tr[ns( 24)] (up, down, total) =   3.00000  5.00000  8.00000
     Atomic magnetic moment for atom  24 =  -2.00000
     SPIN  1
     eigenvalues:
       0.600  0.600  0.600  0.600  0.600
     eigenvectors (columns):
       1.000  0.000  0.000  0.000  0.000
       0.000  1.000  0.000  0.000  0.000
       0.000  0.000  1.000  0.000  0.000
       0.000  0.000  0.000  1.000  0.000
       0.000  0.000  0.000  0.000  1.000
     occupation matrix ns (before diag.):
       0.600  0.000  0.000  0.000  0.000
       0.000  0.600  0.000  0.000  0.000
       0.000  0.000  0.600  0.000  0.000
       0.000  0.000  0.000  0.600  0.000
       0.000  0.000  0.000  0.000  0.600
     SPIN  2
     eigenvalues:
       1.000  1.000  1.000  1.000  1.000
     eigenvectors (columns):
       1.000  0.000  0.000  0.000  0.000
       0.000  1.000  0.000  0.000  0.000
       0.000  0.000  1.000  0.000  0.000
       0.000  0.000  0.000  1.000  0.000
       0.000  0.000  0.000  0.000  1.000
     occupation matrix ns (before diag.):
       1.000  0.000  0.000  0.000  0.000
       0.000  1.000  0.000  0.000  0.000
       0.000  0.000  1.000  0.000  0.000
       0.000  0.000  0.000  1.000  0.000
       0.000  0.000  0.000  0.000  1.000

     Number of occupied Hubbard levels =   64.0000

     Atomic wfc used for Hubbard projectors are orthogonalized

     Starting wfcs are  408 randomized atomic wfcs

     total cpu time spent up to now is       28.4 secs

     Self-consistent Calculation

     iteration #  1     ecut=    90.00 Ry     beta= 0.10
     Davidson diagonalization with overlap

---- Real-time Memory Report at c_bands before calling an iterative solver
          2577 MiB given to the printing process from OS
             0 MiB allocation reported by mallinfo(arena+hblkhd)
         11203 MiB available memory on the node where the printing process lives
------------------
     ethr =  1.00E-02,  avg # of iterations =  2.0

     =================== HUBBARD OCCUPATIONS ===================
     ------------------------ ATOM   14 ------------------------
     Tr[ns( 14)] (up, down, total) =   4.86300  4.12134  8.98434
     Atomic magnetic moment for atom  14 =   0.74166
     SPIN  1
     eigenvalues:
       0.942  0.958  0.987  0.987  0.989
     eigenvectors (columns):
      -0.000  1.000 -0.000 -0.000  0.000
      -0.000  0.000  1.000 -0.000  0.000
      -0.000  0.000  0.000  1.000  0.000
       1.000  0.000  0.000  0.000 -0.000
       0.000 -0.000 -0.000 -0.000  1.000
     occupation matrix ns (before diag.):
       0.958 -0.000 -0.000  0.000  0.000
      -0.000  0.987 -0.000  0.000  0.000
      -0.000 -0.000  0.987  0.000  0.000
       0.000  0.000  0.000  0.942 -0.000
       0.000  0.000  0.000 -0.000  0.989
     SPIN  2
     eigenvalues:
       0.353  0.881  0.922  0.983  0.983
     eigenvectors (columns):
       0.000  1.000  0.000 -0.000  0.000
      -0.000  0.000 -0.000  1.000  0.000
      -0.000  0.000 -0.000  0.000 -1.000
       1.000 -0.000 -0.000  0.000 -0.000
       0.000 -0.000  1.000  0.000 -0.000
     occupation matrix ns (before diag.):
       0.881 -0.000 -0.000 -0.000  0.000
      -0.000  0.983 -0.000  0.000  0.000
      -0.000 -0.000  0.983  0.000  0.000
      -0.000  0.000  0.000  0.353 -0.000
       0.000  0.000  0.000 -0.000  0.922
     ------------------------ ATOM   15 ------------------------
     Tr[ns( 15)] (up, down, total) =   4.12155  4.86300  8.98455
     Atomic magnetic moment for atom  15 =  -0.74144
     SPIN  1
     eigenvalues:
       0.352  0.881  0.922  0.983  0.983
     eigenvectors (columns):
      -0.000  1.000  0.000 -0.000  0.000
      -0.000  0.000 -0.000  1.000  0.000
      -0.000  0.000 -0.000  0.000 -1.000
       1.000  0.000 -0.000  0.000 -0.000
       0.000 -0.000  1.000  0.000 -0.000
     occupation matrix ns (before diag.):
       0.881 -0.000 -0.000  0.000  0.000
      -0.000  0.983 -0.000  0.000  0.000
      -0.000 -0.000  0.983  0.000  0.000
       0.000  0.000  0.000  0.352 -0.000
       0.000  0.000  0.000 -0.000  0.922
     SPIN  2
     eigenvalues:
       0.942  0.958  0.987  0.987  0.989
     eigenvectors (columns):
       0.001  1.000 -0.000 -0.000  0.000
      -0.000  0.000  0.000  1.000  0.000
      -0.000  0.000  1.000 -0.000  0.000
       1.000 -0.001  0.000  0.000 -0.000
       0.000 -0.000 -0.000 -0.000  1.000
     occupation matrix ns (before diag.):
       0.958 -0.000 -0.000 -0.000  0.000
      -0.000  0.987 -0.000  0.000  0.000
      -0.000 -0.000  0.987  0.000  0.000
      -0.000  0.000  0.000  0.942 -0.000
       0.000  0.000  0.000 -0.000  0.989
     ------------------------ ATOM   17 ------------------------
     Tr[ns( 17)] (up, down, total) =   4.12137  4.86300  8.98437
     Atomic magnetic moment for atom  17 =  -0.74163
     SPIN  1
     eigenvalues:
       0.352  0.881  0.921  0.983  0.983
     eigenvectors (columns):
       0.000  1.000  0.000 -0.000  0.000
      -0.000  0.000 -0.000  1.000  0.000
      -0.000  0.000 -0.000  0.000 -1.000
       1.000 -0.000 -0.000  0.000 -0.000
       0.000 -0.000  1.000  0.000 -0.000
     occupation matrix ns (before diag.):
       0.881 -0.000 -0.000 -0.000  0.000
      -0.000  0.983 -0.000  0.000  0.000
      -0.000 -0.000  0.983  0.000  0.000
      -0.000  0.000  0.000  0.352 -0.000
       0.000  0.000  0.000 -0.000  0.921
     SPIN  2
     eigenvalues:
       0.942  0.958  0.987  0.987  0.989
     eigenvectors (columns):
      -0.003  1.000 -0.000 -0.000  0.000
      -0.000  0.000  0.000  1.000  0.000
      -0.000  0.000  1.000 -0.000  0.000
       1.000  0.003  0.000  0.000 -0.000
       0.000 -0.000 -0.000 -0.000  1.000
     occupation matrix ns (before diag.):
       0.958 -0.000 -0.000  0.000  0.000
      -0.000  0.987 -0.000  0.000  0.000
      -0.000 -0.000  0.987  0.000  0.000
       0.000  0.000  0.000  0.942 -0.000
       0.000  0.000  0.000 -0.000  0.989
     ------------------------ ATOM   18 ------------------------
     Tr[ns( 18)] (up, down, total) =   4.86300  4.12112  8.98412
     Atomic magnetic moment for atom  18 =   0.74188
     SPIN  1
     eigenvalues:
       0.942  0.958  0.987  0.987  0.989
     eigenvectors (columns):
       0.001  1.000 -0.000 -0.000  0.000
      -0.000  0.000  1.000 -0.000  0.000
      -0.000  0.000  0.000  1.000  0.000
       1.000 -0.001  0.000  0.000 -0.000
       0.000 -0.000 -0.000 -0.000  1.000
     occupation matrix ns (before diag.):
       0.958 -0.000 -0.000 -0.000  0.000
      -0.000  0.987 -0.000  0.000  0.000
      -0.000 -0.000  0.987  0.000  0.000
      -0.000  0.000  0.000  0.942 -0.000
       0.000  0.000  0.000 -0.000  0.989
     SPIN  2
     eigenvalues:
       0.352  0.881  0.921  0.983  0.983
     eigenvectors (columns):
       0.000  1.000  0.000 -0.000  0.000
      -0.000  0.000 -0.000  1.000  0.000
      -0.000  0.000 -0.000  0.000 -1.000
       1.000 -0.000 -0.000  0.000 -0.000
       0.000 -0.000  1.000  0.000 -0.000
     occupation matrix ns (before diag.):
       0.881 -0.000 -0.000 -0.000  0.000
      -0.000  0.983 -0.000  0.000  0.000
      -0.000 -0.000  0.983  0.000  0.000
      -0.000  0.000  0.000  0.352 -0.000
       0.000  0.000  0.000 -0.000  0.921
     ------------------------ ATOM   20 ------------------------
     Tr[ns( 20)] (up, down, total) =   4.12102  4.86305  8.98408
     Atomic magnetic moment for atom  20 =  -0.74203
     SPIN  1
     eigenvalues:
       0.352  0.881  0.921  0.983  0.983
     eigenvectors (columns):
      -0.000  1.000  0.000 -0.000 -0.000
       0.000  0.000 -0.000  0.000  1.000
       0.000  0.000 -0.000  1.000 -0.000
      -1.000 -0.000 -0.000  0.000  0.000
      -0.000 -0.000  1.000  0.000  0.000
     occupation matrix ns (before diag.):
       0.881 -0.000 -0.000 -0.000  0.000
      -0.000  0.983 -0.000  0.000  0.000
      -0.000 -0.000  0.983  0.000  0.000
      -0.000  0.000  0.000  0.352 -0.000
       0.000  0.000  0.000 -0.000  0.921
     SPIN  2
     eigenvalues:
       0.942  0.958  0.987  0.987  0.989
     eigenvectors (columns):
      -0.000  1.000 -0.000 -0.000  0.000
      -0.000  0.000  1.000 -0.000  0.000
      -0.000  0.000  0.000  1.000  0.000
       1.000  0.000  0.000  0.000 -0.000
       0.000 -0.000 -0.000 -0.000  1.000
     occupation matrix ns (before diag.):
       0.958 -0.000 -0.000  0.000  0.000
      -0.000  0.987 -0.000  0.000  0.000
      -0.000 -0.000  0.987  0.000  0.000
       0.000  0.000  0.000  0.942 -0.000
       0.000  0.000  0.000 -0.000  0.989
     ------------------------ ATOM   21 ------------------------
     Tr[ns( 21)] (up, down, total) =   4.86268  4.12136  8.98405
     Atomic magnetic moment for atom  21 =   0.74132
     SPIN  1
     eigenvalues:
       0.942  0.958  0.987  0.987  0.989
     eigenvectors (columns):
       0.000  1.000 -0.000 -0.000  0.000
      -0.000  0.000  1.000 -0.000  0.000
      -0.000  0.000  0.000  1.000  0.000
       1.000 -0.000  0.000  0.000 -0.000
       0.000 -0.000 -0.000 -0.000  1.000
     occupation matrix ns (before diag.):
       0.958 -0.000 -0.000 -0.000  0.000
      -0.000  0.987 -0.000  0.000  0.000
      -0.000 -0.000  0.987  0.000  0.000
      -0.000  0.000  0.000  0.942 -0.000
       0.000  0.000  0.000 -0.000  0.989
     SPIN  2
     eigenvalues:
       0.352  0.881  0.921  0.983  0.983
     eigenvectors (columns):
      -0.000  1.000  0.000 -0.000  0.000
      -0.000  0.000 -0.000  1.000  0.000
      -0.000  0.000 -0.000  0.000 -1.000
       1.000  0.000 -0.000  0.000 -0.000
       0.000 -0.000  1.000  0.000 -0.000
     occupation matrix ns (before diag.):
       0.881 -0.000 -0.000  0.000  0.000
      -0.000  0.983 -0.000  0.000  0.000
      -0.000 -0.000  0.983  0.000  0.000
       0.000  0.000  0.000  0.352 -0.000
       0.000  0.000  0.000 -0.000  0.921
     ------------------------ ATOM   23 ------------------------
     Tr[ns( 23)] (up, down, total) =   4.86293  4.12179  8.98472
     Atomic magnetic moment for atom  23 =   0.74114
     SPIN  1
     eigenvalues:
       0.942  0.958  0.987  0.987  0.989
     eigenvectors (columns):
      -0.005  1.000 -0.000 -0.000  0.000
      -0.000  0.000  1.000 -0.000  0.000
      -0.000  0.000  0.000  1.000  0.000
       1.000  0.005  0.000  0.000 -0.000
       0.000 -0.000 -0.000 -0.000  1.000
     occupation matrix ns (before diag.):
       0.958 -0.000 -0.000  0.000  0.000
      -0.000  0.987 -0.000  0.000  0.000
      -0.000 -0.000  0.987  0.000  0.000
       0.000  0.000  0.000  0.942 -0.000
       0.000  0.000  0.000 -0.000  0.989
     SPIN  2
     eigenvalues:
       0.353  0.881  0.922  0.983  0.983
     eigenvectors (columns):
       0.000  1.000  0.000 -0.000 -0.000
       0.000  0.000 -0.000  0.000  1.000
       0.000  0.000 -0.000  1.000 -0.000
      -1.000  0.000 -0.000  0.000  0.000
      -0.000 -0.000  1.000  0.000  0.000
     occupation matrix ns (before diag.):
       0.881 -0.000 -0.000  0.000  0.000
      -0.000  0.983 -0.000  0.000  0.000
      -0.000 -0.000  0.983  0.000  0.000
       0.000  0.000  0.000  0.353 -0.000
       0.000  0.000  0.000 -0.000  0.922
     ------------------------ ATOM   24 ------------------------
     Tr[ns( 24)] (up, down, total) =   4.12131  4.86292  8.98423
     Atomic magnetic moment for atom  24 =  -0.74161
     SPIN  1
     eigenvalues:
       0.352  0.881  0.921  0.983  0.983
     eigenvectors (columns):
       0.000  1.000  0.000 -0.000 -0.000
       0.000  0.000 -0.000  0.000  1.000
       0.000  0.000 -0.000  1.000 -0.000
      -1.000  0.000 -0.000  0.000  0.000
      -0.000 -0.000  1.000  0.000  0.000
     occupation matrix ns (before diag.):
       0.881 -0.000 -0.000  0.000  0.000
      -0.000  0.983 -0.000  0.000  0.000
      -0.000 -0.000  0.983  0.000  0.000
       0.000  0.000  0.000  0.352 -0.000
       0.000  0.000  0.000 -0.000  0.921
     SPIN  2
     eigenvalues:
       0.942  0.958  0.987  0.987  0.989
     eigenvectors (columns):
      -0.001  1.000 -0.000 -0.000  0.000
      -0.000  0.000  0.000  1.000  0.000
      -0.000  0.000  1.000 -0.000  0.000
       1.000  0.001  0.000  0.000 -0.000
       0.000 -0.000 -0.000 -0.000  1.000
     occupation matrix ns (before diag.):
       0.958 -0.000 -0.000  0.000  0.000
      -0.000  0.987 -0.000  0.000  0.000
      -0.000 -0.000  0.987  0.000  0.000
       0.000  0.000  0.000  0.942 -0.000
       0.000  0.000  0.000 -0.000  0.989

     Number of occupied Hubbard levels =   71.8745

     negative rho (up, down):  3.831E-01 3.831E-01

     HUBBARD ENERGY =    0.4189  (Ry)

     total cpu time spent up to now is       86.2 secs

     total energy              =   -6557.28759840 Ry
     estimated scf accuracy    <       8.34741383 Ry

     total magnetization       =    -0.00 Bohr mag/cell
     absolute magnetization    =     7.36 Bohr mag/cell

     iteration #  2     ecut=    90.00 Ry     beta= 0.10
     Davidson diagonalization with overlap

---- Real-time Memory Report at c_bands before calling an iterative solver
          3243 MiB given to the printing process from OS
             0 MiB allocation reported by mallinfo(arena+hblkhd)
         10842 MiB available memory on the node where the printing process lives
------------------
     ethr =  1.68E-03,  avg # of iterations =  2.0

     =================== HUBBARD OCCUPATIONS ===================
     ------------------------ ATOM   14 ------------------------
     Tr[ns( 14)] (up, down, total) =   4.87312  4.20923  9.08235
     Atomic magnetic moment for atom  14 =   0.66389
     SPIN  1
     eigenvalues:
       0.950  0.961  0.986  0.986  0.989
     eigenvectors (columns):
      -0.001  1.000 -0.000 -0.000  0.000
      -0.000  0.000  0.000  1.000  0.000
      -0.000  0.000  1.000 -0.000  0.000
       1.000  0.001  0.000  0.000 -0.000
       0.000 -0.000 -0.000 -0.000  1.000
     occupation matrix ns (before diag.):
       0.961 -0.000 -0.000  0.000  0.000
      -0.000  0.986 -0.000  0.000  0.000
      -0.000 -0.000  0.986  0.000  0.000
       0.000  0.000  0.000  0.950 -0.000
       0.000  0.000  0.000 -0.000  0.989
     SPIN  2
     eigenvalues:
       0.325  0.921  0.983  0.983  0.998
     eigenvectors (columns):
       0.000  1.000 -0.000 -0.000  0.000
      -0.000  0.000  1.000 -0.000  0.000
      -0.000  0.000  0.000  1.000  0.000
       1.000 -0.000  0.000  0.000 -0.000
       0.000 -0.000 -0.000 -0.000  1.000
     occupation matrix ns (before diag.):
       0.921 -0.000 -0.000 -0.000  0.000
      -0.000  0.983 -0.000  0.000  0.000
      -0.000 -0.000  0.983  0.000  0.000
      -0.000  0.000  0.000  0.325 -0.000
       0.000  0.000  0.000 -0.000  0.998
     ------------------------ ATOM   15 ------------------------
     Tr[ns( 15)] (up, down, total) =   4.20916  4.87305  9.08221
     Atomic magnetic moment for atom  15 =  -0.66389
     SPIN  1
     eigenvalues:
       0.324  0.921  0.983  0.983  0.998
     eigenvectors (columns):
      -0.000  1.000 -0.000 -0.000  0.000
      -0.000  0.000  0.000  1.000  0.000
      -0.000  0.000  1.000 -0.000  0.000
       1.000  0.000  0.000  0.000 -0.000
       0.000 -0.000 -0.000 -0.000  1.000
     occupation matrix ns (before diag.):
       0.921 -0.000 -0.000  0.000  0.000
      -0.000  0.983 -0.000  0.000  0.000
      -0.000 -0.000  0.983  0.000  0.000
       0.000  0.000  0.000  0.324 -0.000
       0.000  0.000  0.000 -0.000  0.998
     SPIN  2
     eigenvalues:
       0.950  0.961  0.986  0.986  0.989
     eigenvectors (columns):
       0.000  1.000 -0.000 -0.000  0.000
      -0.000  0.000  1.000 -0.000  0.000
      -0.000  0.000  0.000  1.000  0.000
       1.000 -0.000  0.000  0.000 -0.000
       0.000 -0.000 -0.000 -0.000  1.000
     occupation matrix ns (before diag.):
       0.961 -0.000 -0.000 -0.000  0.000
      -0.000  0.986 -0.000  0.000  0.000
      -0.000 -0.000  0.986  0.000  0.000
      -0.000  0.000  0.000  0.950 -0.000
       0.000  0.000  0.000 -0.000  0.989
     ------------------------ ATOM   17 ------------------------
     Tr[ns( 17)] (up, down, total) =   4.20943  4.87306  9.08249
     Atomic magnetic moment for atom  17 =  -0.66362
     SPIN  1
     eigenvalues:
       0.324  0.921  0.983  0.983  0.998
     eigenvectors (columns):
       0.000  1.000 -0.000 -0.000  0.000
      -0.000  0.000  0.000  1.000  0.000
      -0.000  0.000  1.000 -0.000  0.000
       1.000 -0.000  0.000  0.000 -0.000
       0.000 -0.000 -0.000 -0.000  1.000
     occupation matrix ns (before diag.):
       0.921 -0.000 -0.000 -0.000  0.000
      -0.000  0.983 -0.000  0.000  0.000
      -0.000 -0.000  0.983  0.000  0.000
      -0.000  0.000  0.000  0.324 -0.000
       0.000  0.000  0.000 -0.000  0.998
     SPIN  2
     eigenvalues:
       0.950  0.961  0.986  0.986  0.989
     eigenvectors (columns):
      -0.002  1.000 -0.000 -0.000  0.000
      -0.000  0.000  1.000 -0.000  0.000
      -0.000  0.000  0.000  1.000  0.000
       1.000  0.002  0.000  0.000 -0.000
       0.000 -0.000 -0.000 -0.000  1.000
     occupation matrix ns (before diag.):
       0.961 -0.000 -0.000  0.000  0.000
      -0.000  0.986 -0.000  0.000  0.000
      -0.000 -0.000  0.986  0.000  0.000
       0.000  0.000  0.000  0.950 -0.000
       0.000  0.000  0.000 -0.000  0.989
     ------------------------ ATOM   18 ------------------------
     Tr[ns( 18)] (up, down, total) =   4.87307  4.20924  9.08231
     Atomic magnetic moment for atom  18 =   0.66382
     SPIN  1
     eigenvalues:
       0.950  0.961  0.986  0.986  0.989
     eigenvectors (columns):
      -0.000  1.000 -0.000 -0.000  0.000
      -0.000  0.000  0.000  1.000  0.000
      -0.000  0.000  1.000 -0.000  0.000
       1.000  0.000  0.000  0.000 -0.000
       0.000 -0.000 -0.000 -0.000  1.000
     occupation matrix ns (before diag.):
       0.961 -0.000 -0.000  0.000  0.000
      -0.000  0.986 -0.000  0.000  0.000
      -0.000 -0.000  0.986  0.000  0.000
       0.000  0.000  0.000  0.950 -0.000
       0.000  0.000  0.000 -0.000  0.989
     SPIN  2
     eigenvalues:
       0.324  0.921  0.983  0.983  0.998
     eigenvectors (columns):
       0.000  1.000 -0.000 -0.000  0.000
      -0.000  0.000  1.000 -0.000  0.000
      -0.000  0.000  0.000  1.000  0.000
       1.000 -0.000  0.000  0.000 -0.000
       0.000 -0.000 -0.000 -0.000  1.000
     occupation matrix ns (before diag.):
       0.921 -0.000 -0.000 -0.000  0.000
      -0.000  0.983 -0.000  0.000  0.000
      -0.000 -0.000  0.983  0.000  0.000
      -0.000  0.000  0.000  0.324 -0.000
       0.000  0.000  0.000 -0.000  0.998
     ------------------------ ATOM   20 ------------------------
     Tr[ns( 20)] (up, down, total) =   4.20911  4.87312  9.08223
     Atomic magnetic moment for atom  20 =  -0.66401
     SPIN  1
     eigenvalues:
       0.324  0.921  0.983  0.983  0.998
     eigenvectors (columns):
       0.000  1.000 -0.000 -0.000  0.000
      -0.000  0.000  0.000  1.000  0.000
      -0.000  0.000  1.000 -0.000  0.000
       1.000 -0.000  0.000  0.000 -0.000
       0.000 -0.000 -0.000 -0.000  1.000
     occupation matrix ns (before diag.):
       0.921 -0.000 -0.000 -0.000  0.000
      -0.000  0.983 -0.000  0.000  0.000
      -0.000 -0.000  0.983  0.000  0.000
      -0.000  0.000  0.000  0.324 -0.000
       0.000  0.000  0.000 -0.000  0.998
     SPIN  2
     eigenvalues:
       0.950  0.961  0.986  0.986  0.989
     eigenvectors (columns):
      -0.000  1.000 -0.000 -0.000  0.000
      -0.000  0.000  1.000 -0.000  0.000
      -0.000  0.000  0.000  1.000  0.000
       1.000  0.000  0.000  0.000 -0.000
       0.000 -0.000 -0.000 -0.000  1.000
     occupation matrix ns (before diag.):
       0.961 -0.000 -0.000  0.000  0.000
      -0.000  0.986 -0.000  0.000  0.000
      -0.000 -0.000  0.986  0.000  0.000
       0.000  0.000  0.000  0.950 -0.000
       0.000  0.000  0.000 -0.000  0.989
     ------------------------ ATOM   21 ------------------------
     Tr[ns( 21)] (up, down, total) =   4.87297  4.20922  9.08220
     Atomic magnetic moment for atom  21 =   0.66375
     SPIN  1
     eigenvalues:
       0.950  0.961  0.986  0.986  0.989
     eigenvectors (columns):
      -0.000  1.000 -0.000 -0.000  0.000
      -0.000  0.000  0.000  1.000  0.000
      -0.000  0.000  1.000 -0.000  0.000
       1.000  0.000  0.000  0.000 -0.000
       0.000 -0.000 -0.000 -0.000  1.000
     occupation matrix ns (before diag.):
       0.961 -0.000 -0.000  0.000  0.000
      -0.000  0.986 -0.000  0.000  0.000
      -0.000 -0.000  0.986  0.000  0.000
       0.000  0.000  0.000  0.950 -0.000
       0.000  0.000  0.000 -0.000  0.989
     SPIN  2
     eigenvalues:
       0.325  0.921  0.983  0.983  0.998
     eigenvectors (columns):
      -0.000  1.000 -0.000 -0.000  0.000
      -0.000  0.000  1.000 -0.000  0.000
      -0.000  0.000  0.000  1.000  0.000
       1.000  0.000  0.000  0.000 -0.000
       0.000 -0.000 -0.000 -0.000  1.000
     occupation matrix ns (before diag.):
       0.921 -0.000 -0.000  0.000  0.000
      -0.000  0.983 -0.000  0.000  0.000
      -0.000 -0.000  0.983  0.000  0.000
       0.000  0.000  0.000  0.325 -0.000
       0.000  0.000  0.000 -0.000  0.998
     ------------------------ ATOM   23 ------------------------
     Tr[ns( 23)] (up, down, total) =   4.87308  4.20915  9.08222
     Atomic magnetic moment for atom  23 =   0.66393
     SPIN  1
     eigenvalues:
       0.950  0.961  0.986  0.986  0.989
     eigenvectors (columns):
      -0.003  1.000 -0.000 -0.000  0.000
      -0.000  0.000  0.000  1.000  0.000
      -0.000  0.000  1.000 -0.000  0.000
       1.000  0.003  0.000  0.000 -0.000
       0.000 -0.000 -0.000 -0.000  1.000
     occupation matrix ns (before diag.):
       0.961 -0.000 -0.000  0.000  0.000
      -0.000  0.986 -0.000  0.000  0.000
      -0.000 -0.000  0.986  0.000  0.000
       0.000  0.000  0.000  0.950 -0.000
       0.000  0.000  0.000 -0.000  0.989
     SPIN  2
     eigenvalues:
       0.325  0.921  0.983  0.983  0.998
     eigenvectors (columns):
      -0.000  1.000 -0.000 -0.000  0.000
      -0.000  0.000  1.000 -0.000  0.000
      -0.000  0.000  0.000  1.000  0.000
       1.000  0.000  0.000  0.000 -0.000
       0.000 -0.000 -0.000 -0.000  1.000
     occupation matrix ns (before diag.):
       0.921 -0.000 -0.000  0.000  0.000
      -0.000  0.983 -0.000  0.000  0.000
      -0.000 -0.000  0.983  0.000  0.000
       0.000  0.000  0.000  0.325 -0.000
       0.000  0.000  0.000 -0.000  0.998
     ------------------------ ATOM   24 ------------------------
     Tr[ns( 24)] (up, down, total) =   4.20923  4.87298  9.08221
     Atomic magnetic moment for atom  24 =  -0.66374
     SPIN  1
     eigenvalues:
       0.324  0.921  0.983  0.983  0.998
     eigenvectors (columns):
      -0.000  1.000 -0.000 -0.000  0.000
      -0.000  0.000  0.000  1.000  0.000
      -0.000  0.000  1.000 -0.000  0.000
       1.000  0.000  0.000  0.000 -0.000
       0.000 -0.000 -0.000 -0.000  1.000
     occupation matrix ns (before diag.):
       0.921 -0.000 -0.000  0.000  0.000
      -0.000  0.983 -0.000  0.000  0.000
      -0.000 -0.000  0.983  0.000  0.000
       0.000  0.000  0.000  0.324 -0.000
       0.000  0.000  0.000 -0.000  0.998
     SPIN  2
     eigenvalues:
       0.950  0.961  0.986  0.986  0.989
     eigenvectors (columns):
       0.000  1.000 -0.000 -0.000  0.000
      -0.000  0.000  1.000 -0.000  0.000
      -0.000  0.000  0.000  1.000  0.000
       1.000 -0.000  0.000  0.000 -0.000
       0.000 -0.000 -0.000 -0.000  1.000
     occupation matrix ns (before diag.):
       0.961 -0.000 -0.000 -0.000  0.000
      -0.000  0.986 -0.000  0.000  0.000
      -0.000 -0.000  0.986  0.000  0.000
      -0.000  0.000  0.000  0.950 -0.000
       0.000  0.000  0.000 -0.000  0.989

     Number of occupied Hubbard levels =   72.6582

     negative rho (up, down):  3.737E-01 3.736E-01

     HUBBARD ENERGY =    0.3994  (Ry)

     total cpu time spent up to now is      141.4 secs

     total energy              =   -6556.31077759 Ry
     estimated scf accuracy    <       4.61961095 Ry

     total magnetization       =    -0.00 Bohr mag/cell
     absolute magnetization    =     6.85 Bohr mag/cell

     iteration #  3     ecut=    90.00 Ry     beta= 0.10
     Davidson diagonalization with overlap

---- Real-time Memory Report at c_bands before calling an iterative solver
          3258 MiB given to the printing process from OS
             0 MiB allocation reported by mallinfo(arena+hblkhd)
         10801 MiB available memory on the node where the printing process lives
------------------
     ethr =  9.31E-04,  avg # of iterations =  2.0

     =================== HUBBARD OCCUPATIONS ===================
     ------------------------ ATOM   14 ------------------------
     Tr[ns( 14)] (up, down, total) =   4.89049  4.69610  9.58658
     Atomic magnetic moment for atom  14 =   0.19439
     SPIN  1
     eigenvalues:
       0.952  0.970  0.989  0.989  0.991
     eigenvectors (columns):
      -0.000  1.000 -0.000 -0.000  0.000
      -0.000  0.000  0.000  1.000  0.000
      -0.000  0.000  1.000 -0.000  0.000
       1.000  0.000  0.000  0.000 -0.000
       0.000 -0.000 -0.000 -0.000  1.000
     occupation matrix ns (before diag.):
       0.970 -0.000 -0.000  0.000  0.000
      -0.000  0.989 -0.000  0.000  0.000
      -0.000 -0.000  0.989  0.000  0.000
       0.000  0.000  0.000  0.952 -0.000
       0.000  0.000  0.000 -0.000  0.991
     SPIN  2
     eigenvalues:
       0.800  0.948  0.981  0.982  0.985
     eigenvectors (columns):
      -0.000  1.000 -0.000 -0.000  0.000
      -0.000  0.000  1.000 -0.000  0.000
      -0.000  0.000  0.000  1.000  0.000
       1.000  0.000  0.000  0.000 -0.000
       0.000 -0.000 -0.000 -0.000  1.000
     occupation matrix ns (before diag.):
       0.948 -0.000 -0.000  0.000  0.000
      -0.000  0.981 -0.000  0.000  0.000
      -0.000 -0.000  0.982  0.000  0.000
       0.000  0.000  0.000  0.800 -0.000
       0.000  0.000  0.000 -0.000  0.985
     ------------------------ ATOM   15 ------------------------
     Tr[ns( 15)] (up, down, total) =   4.69626  4.89050  9.58676
     Atomic magnetic moment for atom  15 =  -0.19424
     SPIN  1
     eigenvalues:
       0.801  0.948  0.981  0.982  0.985
     eigenvectors (columns):
      -0.000  1.000 -0.000 -0.000  0.000
      -0.000  0.000  0.000  1.000  0.000
      -0.000  0.000  1.000 -0.000  0.000
       1.000  0.000  0.000  0.000 -0.000
       0.000 -0.000 -0.000 -0.000  1.000
     occupation matrix ns (before diag.):
       0.948 -0.000 -0.000  0.000  0.000
      -0.000  0.982 -0.000  0.000  0.000
      -0.000 -0.000  0.981  0.000  0.000
       0.000  0.000  0.000  0.801 -0.000
       0.000  0.000  0.000 -0.000  0.985
     SPIN  2
     eigenvalues:
       0.952  0.970  0.989  0.989  0.991
     eigenvectors (columns):
       0.000  1.000 -0.000 -0.000  0.000
      -0.000  0.000  1.000 -0.000  0.000
      -0.000  0.000  0.000  1.000  0.000
       1.000 -0.000  0.000  0.000 -0.000
       0.000 -0.000 -0.000 -0.000  1.000
     occupation matrix ns (before diag.):
       0.970 -0.000 -0.000 -0.000  0.000
      -0.000  0.989 -0.000  0.000  0.000
      -0.000 -0.000  0.989  0.000  0.000
      -0.000  0.000  0.000  0.952 -0.000
       0.000  0.000  0.000 -0.000  0.991
     ------------------------ ATOM   17 ------------------------
     Tr[ns( 17)] (up, down, total) =   4.69589  4.89042  9.58631
     Atomic magnetic moment for atom  17 =  -0.19453
     SPIN  1
     eigenvalues:
       0.800  0.948  0.981  0.982  0.985
     eigenvectors (columns):
      -0.000  1.000 -0.000 -0.000  0.000
      -0.000  0.000  0.000  1.000  0.000
      -0.000  0.000  1.000 -0.000  0.000
       1.000  0.000  0.000  0.000 -0.000
       0.000 -0.000 -0.000 -0.000  1.000
     occupation matrix ns (before diag.):
       0.948 -0.000 -0.000  0.000  0.000
      -0.000  0.982 -0.000  0.000  0.000
      -0.000 -0.000  0.981  0.000  0.000
       0.000  0.000  0.000  0.800 -0.000
       0.000  0.000  0.000 -0.000  0.985
     SPIN  2
     eigenvalues:
       0.952  0.970  0.989  0.989  0.991
     eigenvectors (columns):
      -0.001  1.000 -0.000 -0.000  0.000
      -0.000  0.000  1.000 -0.000  0.000
      -0.000  0.000  0.000  1.000  0.000
       1.000  0.001  0.000  0.000 -0.000
       0.000 -0.000 -0.000 -0.000  1.000
     occupation matrix ns (before diag.):
       0.970 -0.000 -0.000  0.000  0.000
      -0.000  0.989 -0.000  0.000  0.000
      -0.000 -0.000  0.989  0.000  0.000
       0.000  0.000  0.000  0.952 -0.000
       0.000  0.000  0.000 -0.000  0.991
     ------------------------ ATOM   18 ------------------------
     Tr[ns( 18)] (up, down, total) =   4.89046  4.69586  9.58632
     Atomic magnetic moment for atom  18 =   0.19460
     SPIN  1
     eigenvalues:
       0.952  0.970  0.989  0.989  0.991
     eigenvectors (columns):
      -0.000  1.000 -0.000 -0.000  0.000
      -0.000  0.000  0.000  1.000  0.000
      -0.000  0.000  1.000 -0.000  0.000
       1.000  0.000  0.000  0.000 -0.000
       0.000 -0.000 -0.000 -0.000  1.000
     occupation matrix ns (before diag.):
       0.970 -0.000 -0.000  0.000  0.000
      -0.000  0.989 -0.000  0.000  0.000
      -0.000 -0.000  0.989  0.000  0.000
       0.000  0.000  0.000  0.952 -0.000
       0.000  0.000  0.000 -0.000  0.991
     SPIN  2
     eigenvalues:
       0.800  0.948  0.981  0.981  0.985
     eigenvectors (columns):
      -0.000  1.000 -0.000 -0.000  0.000
      -0.000  0.000  1.000 -0.000  0.000
      -0.000  0.000  0.000  1.000  0.000
       1.000  0.000  0.000  0.000 -0.000
       0.000 -0.000 -0.000 -0.000  1.000
     occupation matrix ns (before diag.):
       0.948 -0.000 -0.000  0.000  0.000
      -0.000  0.981 -0.000  0.000  0.000
      -0.000 -0.000  0.981  0.000  0.000
       0.000  0.000  0.000  0.800 -0.000
       0.000  0.000  0.000 -0.000  0.985
     ------------------------ ATOM   20 ------------------------
     Tr[ns( 20)] (up, down, total) =   4.69645  4.89054  9.58699
     Atomic magnetic moment for atom  20 =  -0.19409
     SPIN  1
     eigenvalues:
       0.801  0.948  0.981  0.982  0.985
     eigenvectors (columns):
      -0.000  1.000 -0.000 -0.000  0.000
      -0.000  0.000  0.000  1.000  0.000
      -0.000  0.000  1.000 -0.000  0.000
       1.000  0.000  0.000  0.000 -0.000
       0.000 -0.000 -0.000 -0.000  1.000
     occupation matrix ns (before diag.):
       0.948 -0.000 -0.000  0.000  0.000
      -0.000  0.982 -0.000  0.000  0.000
      -0.000 -0.000  0.981  0.000  0.000
       0.000  0.000  0.000  0.801 -0.000
       0.000  0.000  0.000 -0.000  0.985
     SPIN  2
     eigenvalues:
       0.952  0.970  0.989  0.989  0.991
     eigenvectors (columns):
      -0.000  1.000 -0.000 -0.000  0.000
      -0.000  0.000  1.000 -0.000  0.000
      -0.000  0.000  0.000  1.000  0.000
       1.000  0.000  0.000  0.000 -0.000
       0.000 -0.000 -0.000 -0.000  1.000
     occupation matrix ns (before diag.):
       0.970 -0.000 -0.000  0.000  0.000
      -0.000  0.989 -0.000  0.000  0.000
      -0.000 -0.000  0.989  0.000  0.000
       0.000  0.000  0.000  0.952 -0.000
       0.000  0.000  0.000 -0.000  0.991
     ------------------------ ATOM   21 ------------------------
     Tr[ns( 21)] (up, down, total) =   4.89049  4.69661  9.58710
     Atomic magnetic moment for atom  21 =   0.19388
     SPIN  1
     eigenvalues:
       0.952  0.970  0.989  0.989  0.991
     eigenvectors (columns):
      -0.000  1.000 -0.000 -0.000  0.000
      -0.000  0.000  0.000  1.000  0.000
      -0.000  0.000  1.000 -0.000  0.000
       1.000  0.000  0.000  0.000 -0.000
       0.000 -0.000 -0.000 -0.000  1.000
     occupation matrix ns (before diag.):
       0.970 -0.000 -0.000  0.000  0.000
      -0.000  0.989 -0.000  0.000  0.000
      -0.000 -0.000  0.989  0.000  0.000
       0.000  0.000  0.000  0.952 -0.000
       0.000  0.000  0.000 -0.000  0.991
     SPIN  2
     eigenvalues:
       0.801  0.948  0.981  0.982  0.985
     eigenvectors (columns):
      -0.000  1.000 -0.000 -0.000  0.000
      -0.000  0.000  1.000 -0.000  0.000
      -0.000  0.000  0.000  1.000  0.000
       1.000  0.000  0.000  0.000 -0.000
       0.000 -0.000 -0.000 -0.000  1.000
     occupation matrix ns (before diag.):
       0.948 -0.000 -0.000  0.000  0.000
      -0.000  0.981 -0.000  0.000  0.000
      -0.000 -0.000  0.982  0.000  0.000
       0.000  0.000  0.000  0.801 -0.000
       0.000  0.000  0.000 -0.000  0.985
     ------------------------ ATOM   23 ------------------------
     Tr[ns( 23)] (up, down, total) =   4.89049  4.69632  9.58681
     Atomic magnetic moment for atom  23 =   0.19417
     SPIN  1
     eigenvalues:
       0.952  0.970  0.989  0.989  0.991
     eigenvectors (columns):
      -0.001  1.000 -0.000 -0.000  0.000
      -0.000  0.000  0.000  1.000  0.000
      -0.000  0.000  1.000 -0.000  0.000
       1.000  0.001  0.000  0.000 -0.000
       0.000 -0.000 -0.000 -0.000  1.000
     occupation matrix ns (before diag.):
       0.970 -0.000 -0.000  0.000  0.000
      -0.000  0.989 -0.000  0.000  0.000
      -0.000 -0.000  0.989  0.000  0.000
       0.000  0.000  0.000  0.952 -0.000
       0.000  0.000  0.000 -0.000  0.991
     SPIN  2
     eigenvalues:
       0.801  0.948  0.981  0.981  0.985
     eigenvectors (columns):
       0.000  1.000 -0.000 -0.000  0.000
      -0.000  0.000  1.000 -0.000  0.000
      -0.000  0.000  0.000  1.000  0.000
       1.000 -0.000  0.000  0.000 -0.000
       0.000 -0.000 -0.000 -0.000  1.000
     occupation matrix ns (before diag.):
       0.948 -0.000 -0.000 -0.000  0.000
      -0.000  0.981 -0.000  0.000  0.000
      -0.000 -0.000  0.981  0.000  0.000
      -0.000  0.000  0.000  0.801 -0.000
       0.000  0.000  0.000 -0.000  0.985
     ------------------------ ATOM   24 ------------------------
     Tr[ns( 24)] (up, down, total) =   4.69618  4.89040  9.58659
     Atomic magnetic moment for atom  24 =  -0.19422
     SPIN  1
     eigenvalues:
       0.800  0.948  0.981  0.982  0.985
     eigenvectors (columns):
      -0.000  1.000 -0.000 -0.000  0.000
      -0.000  0.000  0.000  1.000  0.000
      -0.000  0.000  1.000 -0.000  0.000
       1.000  0.000  0.000  0.000 -0.000
       0.000 -0.000 -0.000 -0.000  1.000
     occupation matrix ns (before diag.):
       0.948 -0.000 -0.000  0.000  0.000
      -0.000  0.982 -0.000  0.000  0.000
      -0.000 -0.000  0.981  0.000  0.000
       0.000  0.000  0.000  0.800 -0.000
       0.000  0.000  0.000 -0.000  0.985
     SPIN  2
     eigenvalues:
       0.952  0.970  0.989  0.989  0.991
     eigenvectors (columns):
      -0.000  1.000 -0.000 -0.000  0.000
      -0.000  0.000  1.000 -0.000  0.000
      -0.000  0.000  0.000  1.000  0.000
       1.000  0.000  0.000  0.000 -0.000
       0.000 -0.000 -0.000 -0.000  1.000
     occupation matrix ns (before diag.):
       0.970 -0.000 -0.000  0.000  0.000
      -0.000  0.989 -0.000  0.000  0.000
      -0.000 -0.000  0.989  0.000  0.000
       0.000  0.000  0.000  0.952 -0.000
       0.000  0.000  0.000 -0.000  0.991

     Number of occupied Hubbard levels =   76.6935

     negative rho (up, down):  3.741E-01 3.741E-01

     HUBBARD ENERGY =    0.4033  (Ry)

     total cpu time spent up to now is      198.7 secs

     total energy              =   -6556.81954203 Ry
     estimated scf accuracy    <       4.65656212 Ry

     total magnetization       =     0.00 Bohr mag/cell
     absolute magnetization    =     2.64 Bohr mag/cell

     iteration #  4     ecut=    90.00 Ry     beta= 0.10
     Davidson diagonalization with overlap

---- Real-time Memory Report at c_bands before calling an iterative solver
          3274 MiB given to the printing process from OS
             0 MiB allocation reported by mallinfo(arena+hblkhd)
         10754 MiB available memory on the node where the printing process lives
------------------
     ethr =  9.31E-04,  avg # of iterations =  1.0

     =================== HUBBARD OCCUPATIONS ===================
     ------------------------ ATOM   14 ------------------------
     Tr[ns( 14)] (up, down, total) =   4.88009  4.43796  9.31805
     Atomic magnetic moment for atom  14 =   0.44214
     SPIN  1
     eigenvalues:
       0.948  0.966  0.988  0.988  0.990
     eigenvectors (columns):
      -0.000  1.000 -0.000 -0.000  0.000
      -0.000  0.000  1.000 -0.000  0.000
      -0.000  0.000  0.000  1.000  0.000
       1.000  0.000  0.000  0.000 -0.000
       0.000 -0.000 -0.000 -0.000  1.000
     occupation matrix ns (before diag.):
       0.966 -0.000 -0.000  0.000  0.000
      -0.000  0.988 -0.000  0.000  0.000
      -0.000 -0.000  0.988  0.000  0.000
       0.000  0.000  0.000  0.948 -0.000
       0.000  0.000  0.000 -0.000  0.990
     SPIN  2
     eigenvalues:
       0.555  0.936  0.981  0.981  0.985
     eigenvectors (columns):
       0.000  1.000 -0.000 -0.000  0.000
      -0.000  0.000  1.000 -0.000  0.000
      -0.000  0.000  0.000  1.000  0.000
       1.000 -0.000  0.000  0.000 -0.000
       0.000 -0.000 -0.000 -0.000  1.000
     occupation matrix ns (before diag.):
       0.936 -0.000 -0.000 -0.000  0.000
      -0.000  0.981 -0.000  0.000  0.000
      -0.000 -0.000  0.981  0.000  0.000
      -0.000  0.000  0.000  0.555 -0.000
       0.000  0.000  0.000 -0.000  0.985
     ------------------------ ATOM   15 ------------------------
     Tr[ns( 15)] (up, down, total) =   4.43814  4.88013  9.31827
     Atomic magnetic moment for atom  15 =  -0.44199
     SPIN  1
     eigenvalues:
       0.555  0.936  0.981  0.981  0.985
     eigenvectors (columns):
      -0.000  1.000 -0.000 -0.000  0.000
      -0.000  0.000  0.000  1.000  0.000
      -0.000  0.000  1.000 -0.000  0.000
       1.000  0.000  0.000  0.000 -0.000
       0.000 -0.000 -0.000 -0.000  1.000
     occupation matrix ns (before diag.):
       0.936 -0.000 -0.000  0.000  0.000
      -0.000  0.981 -0.000  0.000  0.000
      -0.000 -0.000  0.981  0.000  0.000
       0.000  0.000  0.000  0.555 -0.000
       0.000  0.000  0.000 -0.000  0.985
     SPIN  2
     eigenvalues:
       0.948  0.966  0.988  0.988  0.990
     eigenvectors (columns):
      -0.000  1.000 -0.000 -0.000  0.000
      -0.000  0.000  1.000 -0.000  0.000
      -0.000  0.000  0.000  1.000  0.000
       1.000  0.000  0.000  0.000 -0.000
       0.000 -0.000 -0.000 -0.000  1.000
     occupation matrix ns (before diag.):
       0.966 -0.000 -0.000  0.000  0.000
      -0.000  0.988 -0.000  0.000  0.000
      -0.000 -0.000  0.988  0.000  0.000
       0.000  0.000  0.000  0.948 -0.000
       0.000  0.000  0.000 -0.000  0.990
     ------------------------ ATOM   17 ------------------------
     Tr[ns( 17)] (up, down, total) =   4.43749  4.88005  9.31753
     Atomic magnetic moment for atom  17 =  -0.44256
     SPIN  1
     eigenvalues:
       0.555  0.936  0.981  0.981  0.985
     eigenvectors (columns):
       0.000  1.000 -0.000 -0.000  0.000
      -0.000  0.000  0.000  1.000  0.000
      -0.000  0.000  1.000 -0.000  0.000
       1.000 -0.000  0.000  0.000 -0.000
       0.000 -0.000 -0.000 -0.000  1.000
     occupation matrix ns (before diag.):
       0.936 -0.000 -0.000 -0.000  0.000
      -0.000  0.981 -0.000  0.000  0.000
      -0.000 -0.000  0.981  0.000  0.000
      -0.000  0.000  0.000  0.555 -0.000
       0.000  0.000  0.000 -0.000  0.985
     SPIN  2
     eigenvalues:
       0.948  0.966  0.988  0.988  0.990
     eigenvectors (columns):
      -0.000  1.000 -0.000 -0.000  0.000
      -0.000  0.000  1.000 -0.000  0.000
      -0.000  0.000  0.000  1.000  0.000
       1.000  0.000  0.000  0.000 -0.000
       0.000 -0.000 -0.000 -0.000  1.000
     occupation matrix ns (before diag.):
       0.966 -0.000 -0.000  0.000  0.000
      -0.000  0.988 -0.000  0.000  0.000
      -0.000 -0.000  0.988  0.000  0.000
       0.000  0.000  0.000  0.948 -0.000
       0.000  0.000  0.000 -0.000  0.990
     ------------------------ ATOM   18 ------------------------
     Tr[ns( 18)] (up, down, total) =   4.88008  4.43806  9.31814
     Atomic magnetic moment for atom  18 =   0.44203
     SPIN  1
     eigenvalues:
       0.948  0.966  0.988  0.988  0.990
     eigenvectors (columns):
      -0.000  1.000 -0.000 -0.000  0.000
      -0.000  0.000  0.000  1.000  0.000
      -0.000  0.000  1.000 -0.000  0.000
       1.000  0.000  0.000  0.000 -0.000
       0.000 -0.000 -0.000 -0.000  1.000
     occupation matrix ns (before diag.):
       0.966 -0.000 -0.000  0.000  0.000
      -0.000  0.988 -0.000  0.000  0.000
      -0.000 -0.000  0.988  0.000  0.000
       0.000  0.000  0.000  0.948 -0.000
       0.000  0.000  0.000 -0.000  0.990
     SPIN  2
     eigenvalues:
       0.555  0.936  0.981  0.981  0.985
     eigenvectors (columns):
       0.000  1.000 -0.000 -0.000  0.000
      -0.000  0.000  1.000 -0.000  0.000
      -0.000  0.000  0.000  1.000  0.000
       1.000 -0.000  0.000  0.000 -0.000
       0.000 -0.000 -0.000 -0.000  1.000
     occupation matrix ns (before diag.):
       0.936 -0.000 -0.000 -0.000  0.000
      -0.000  0.981 -0.000  0.000  0.000
      -0.000 -0.000  0.981  0.000  0.000
      -0.000  0.000  0.000  0.555 -0.000
       0.000  0.000  0.000 -0.000  0.985
     ------------------------ ATOM   20 ------------------------
     Tr[ns( 20)] (up, down, total) =   4.43775  4.88013  9.31788
     Atomic magnetic moment for atom  20 =  -0.44238
     SPIN  1
     eigenvalues:
       0.555  0.936  0.981  0.981  0.985
     eigenvectors (columns):
       0.000  1.000 -0.000 -0.000  0.000
      -0.000  0.000  0.000  1.000  0.000
      -0.000  0.000  1.000 -0.000  0.000
       1.000 -0.000  0.000  0.000 -0.000
       0.000 -0.000 -0.000 -0.000  1.000
     occupation matrix ns (before diag.):
       0.936 -0.000 -0.000 -0.000  0.000
      -0.000  0.981 -0.000  0.000  0.000
      -0.000 -0.000  0.981  0.000  0.000
      -0.000  0.000  0.000  0.555 -0.000
       0.000  0.000  0.000 -0.000  0.985
     SPIN  2
     eigenvalues:
       0.948  0.966  0.988  0.988  0.990
     eigenvectors (columns):
       0.000  1.000 -0.000 -0.000  0.000
      -0.000  0.000  1.000 -0.000  0.000
      -0.000  0.000  0.000  1.000  0.000
       1.000 -0.000  0.000  0.000 -0.000
       0.000 -0.000 -0.000 -0.000  1.000
     occupation matrix ns (before diag.):
       0.966 -0.000 -0.000 -0.000  0.000
      -0.000  0.988 -0.000  0.000  0.000
      -0.000 -0.000  0.988  0.000  0.000
      -0.000  0.000  0.000  0.948 -0.000
       0.000  0.000  0.000 -0.000  0.990
     ------------------------ ATOM   21 ------------------------
     Tr[ns( 21)] (up, down, total) =   4.88011  4.43848  9.31858
     Atomic magnetic moment for atom  21 =   0.44163
     SPIN  1
     eigenvalues:
       0.948  0.966  0.988  0.988  0.990
     eigenvectors (columns):
       0.000  1.000 -0.000 -0.000  0.000
      -0.000  0.000  0.000  1.000  0.000
      -0.000  0.000  1.000 -0.000  0.000
       1.000 -0.000  0.000  0.000 -0.000
       0.000 -0.000 -0.000 -0.000  1.000
     occupation matrix ns (before diag.):
       0.966 -0.000 -0.000 -0.000  0.000
      -0.000  0.988 -0.000  0.000  0.000
      -0.000 -0.000  0.988  0.000  0.000
      -0.000  0.000  0.000  0.948 -0.000
       0.000  0.000  0.000 -0.000  0.990
     SPIN  2
     eigenvalues:
       0.555  0.936  0.981  0.981  0.985
     eigenvectors (columns):
      -0.000  1.000 -0.000 -0.000  0.000
      -0.000  0.000  1.000 -0.000  0.000
      -0.000  0.000  0.000  1.000  0.000
       1.000  0.000  0.000  0.000 -0.000
       0.000 -0.000 -0.000 -0.000  1.000
     occupation matrix ns (before diag.):
       0.936 -0.000 -0.000  0.000  0.000
      -0.000  0.981 -0.000  0.000  0.000
      -0.000 -0.000  0.981  0.000  0.000
       0.000  0.000  0.000  0.555 -0.000
       0.000  0.000  0.000 -0.000  0.985
     ------------------------ ATOM   23 ------------------------
     Tr[ns( 23)] (up, down, total) =   4.88010  4.43808  9.31818
     Atomic magnetic moment for atom  23 =   0.44203
     SPIN  1
     eigenvalues:
       0.948  0.966  0.988  0.988  0.990
     eigenvectors (columns):
      -0.000  1.000 -0.000 -0.000  0.000
      -0.000  0.000  0.000  1.000  0.000
      -0.000  0.000  1.000 -0.000  0.000
       1.000  0.000  0.000  0.000 -0.000
       0.000 -0.000 -0.000 -0.000  1.000
     occupation matrix ns (before diag.):
       0.966 -0.000 -0.000  0.000  0.000
      -0.000  0.988 -0.000  0.000  0.000
      -0.000 -0.000  0.988  0.000  0.000
       0.000  0.000  0.000  0.948 -0.000
       0.000  0.000  0.000 -0.000  0.990
     SPIN  2
     eigenvalues:
       0.555  0.936  0.981  0.981  0.985
     eigenvectors (columns):
      -0.000  1.000 -0.000 -0.000  0.000
      -0.000  0.000  1.000 -0.000  0.000
      -0.000  0.000  0.000  1.000  0.000
       1.000  0.000  0.000  0.000 -0.000
       0.000 -0.000 -0.000 -0.000  1.000
     occupation matrix ns (before diag.):
       0.936 -0.000 -0.000  0.000  0.000
      -0.000  0.981 -0.000  0.000  0.000
      -0.000 -0.000  0.981  0.000  0.000
       0.000  0.000  0.000  0.555 -0.000
       0.000  0.000  0.000 -0.000  0.985
     ------------------------ ATOM   24 ------------------------
     Tr[ns( 24)] (up, down, total) =   4.43811  4.88006  9.31817
     Atomic magnetic moment for atom  24 =  -0.44195
     SPIN  1
     eigenvalues:
       0.555  0.936  0.981  0.981  0.985
     eigenvectors (columns):
      -0.000  1.000 -0.000 -0.000  0.000
      -0.000  0.000  0.000  1.000  0.000
      -0.000  0.000  1.000 -0.000  0.000
       1.000  0.000  0.000  0.000 -0.000
       0.000 -0.000 -0.000 -0.000  1.000
     occupation matrix ns (before diag.):
       0.936 -0.000 -0.000  0.000  0.000
      -0.000  0.981 -0.000  0.000  0.000
      -0.000 -0.000  0.981  0.000  0.000
       0.000  0.000  0.000  0.555 -0.000
       0.000  0.000  0.000 -0.000  0.985
     SPIN  2
     eigenvalues:
       0.948  0.966  0.988  0.988  0.990
     eigenvectors (columns):
       0.000  1.000 -0.000 -0.000  0.000
      -0.000  0.000  1.000 -0.000  0.000
      -0.000  0.000  0.000  1.000  0.000
       1.000 -0.000  0.000  0.000 -0.000
       0.000 -0.000 -0.000 -0.000  1.000
     occupation matrix ns (before diag.):
       0.966 -0.000 -0.000 -0.000  0.000
      -0.000  0.988 -0.000  0.000  0.000
      -0.000 -0.000  0.988  0.000  0.000
      -0.000  0.000  0.000  0.948 -0.000
       0.000  0.000  0.000 -0.000  0.990

     Number of occupied Hubbard levels =   74.5448

     negative rho (up, down):  3.679E-01 3.679E-01

     HUBBARD ENERGY =    0.3953  (Ry)

     total cpu time spent up to now is      250.6 secs

     total energy              =   -6556.83047110 Ry
     estimated scf accuracy    <       1.17451606 Ry

     total magnetization       =    -0.00 Bohr mag/cell
     absolute magnetization    =     4.89 Bohr mag/cell

     iteration #  5     ecut=    90.00 Ry     beta= 0.10
     Davidson diagonalization with overlap

---- Real-time Memory Report at c_bands before calling an iterative solver
          3284 MiB given to the printing process from OS
             0 MiB allocation reported by mallinfo(arena+hblkhd)
         10715 MiB available memory on the node where the printing process lives
------------------
     ethr =  2.37E-04,  avg # of iterations =  3.0

     =================== HUBBARD OCCUPATIONS ===================
     ------------------------ ATOM   14 ------------------------
     Tr[ns( 14)] (up, down, total) =   4.87834  4.55614  9.43448
     Atomic magnetic moment for atom  14 =   0.32220
     SPIN  1
     eigenvalues:
       0.947  0.965  0.988  0.988  0.990
     eigenvectors (columns):
      -0.000  1.000 -0.000 -0.000  0.000
      -0.000  0.000  1.000 -0.000  0.000
      -0.000  0.000  0.000  1.000  0.000
       1.000  0.000  0.000  0.000 -0.000
       0.000 -0.000 -0.000 -0.000  1.000
     occupation matrix ns (before diag.):
       0.965 -0.000 -0.000  0.000  0.000
      -0.000  0.988 -0.000  0.000  0.000
      -0.000 -0.000  0.988  0.000  0.000
       0.000  0.000  0.000  0.947 -0.000
       0.000  0.000  0.000 -0.000  0.990
     SPIN  2
     eigenvalues:
       0.668  0.941  0.981  0.981  0.985
     eigenvectors (columns):
       0.000  1.000 -0.000 -0.000  0.000
      -0.000  0.000  1.000 -0.000  0.000
      -0.000  0.000  0.000  1.000  0.000
       1.000 -0.000  0.000  0.000 -0.000
       0.000 -0.000 -0.000 -0.000  1.000
     occupation matrix ns (before diag.):
       0.941 -0.000 -0.000 -0.000  0.000
      -0.000  0.981 -0.000  0.000  0.000
      -0.000 -0.000  0.981  0.000  0.000
      -0.000  0.000  0.000  0.668 -0.000
       0.000  0.000  0.000 -0.000  0.985
     ------------------------ ATOM   15 ------------------------
     Tr[ns( 15)] (up, down, total) =   4.55585  4.87834  9.43420
     Atomic magnetic moment for atom  15 =  -0.32249
     SPIN  1
     eigenvalues:
       0.667  0.941  0.981  0.982  0.985
     eigenvectors (columns):
      -0.000  1.000 -0.000 -0.000  0.000
      -0.000  0.000  0.000  1.000  0.000
      -0.000  0.000  1.000 -0.000  0.000
       1.000  0.000  0.000  0.000 -0.000
       0.000 -0.000 -0.000 -0.000  1.000
     occupation matrix ns (before diag.):
       0.941 -0.000 -0.000  0.000  0.000
      -0.000  0.982 -0.000  0.000  0.000
      -0.000 -0.000  0.981  0.000  0.000
       0.000  0.000  0.000  0.667 -0.000
       0.000  0.000  0.000 -0.000  0.985
     SPIN  2
     eigenvalues:
       0.947  0.965  0.988  0.988  0.990
     eigenvectors (columns):
      -0.000  1.000 -0.000 -0.000  0.000
      -0.000  0.000  1.000 -0.000  0.000
      -0.000  0.000  0.000  1.000  0.000
       1.000  0.000  0.000  0.000 -0.000
       0.000 -0.000 -0.000 -0.000  1.000
     occupation matrix ns (before diag.):
       0.965 -0.000 -0.000  0.000  0.000
      -0.000  0.988 -0.000  0.000  0.000
      -0.000 -0.000  0.988  0.000  0.000
       0.000  0.000  0.000  0.947 -0.000
       0.000  0.000  0.000 -0.000  0.990
     ------------------------ ATOM   17 ------------------------
     Tr[ns( 17)] (up, down, total) =   4.55629  4.87835  9.43463
     Atomic magnetic moment for atom  17 =  -0.32206
     SPIN  1
     eigenvalues:
       0.668  0.941  0.981  0.982  0.985
     eigenvectors (columns):
      -0.000  1.000 -0.000 -0.000  0.000
      -0.000  0.000  0.000  1.000  0.000
      -0.000  0.000  1.000 -0.000  0.000
       1.000  0.000  0.000  0.000 -0.000
       0.000 -0.000 -0.000 -0.000  1.000
     occupation matrix ns (before diag.):
       0.941 -0.000 -0.000  0.000  0.000
      -0.000  0.982 -0.000  0.000  0.000
      -0.000 -0.000  0.981  0.000  0.000
       0.000  0.000  0.000  0.668 -0.000
       0.000  0.000  0.000 -0.000  0.985
     SPIN  2
     eigenvalues:
       0.947  0.965  0.988  0.988  0.990
     eigenvectors (columns):
      -0.000  1.000 -0.000 -0.000  0.000
      -0.000  0.000  0.000  1.000  0.000
      -0.000  0.000  1.000 -0.000  0.000
[...]
     atom   36 type  6   force =     0.00021379   -0.00000000   13.97579648
     atom   37 type  6   force =    -0.00019784   -0.00000000  -13.97561929
     atom   38 type  6   force =    -0.00019829    0.00000000   13.97571783
     atom   39 type  6   force =    -0.00021564    0.00000000  -13.97569315
     atom   40 type  6   force =    -0.00021379   -0.00000000   13.97579648
     atom   41 type  6   force =     0.00000000    0.00018833  -13.97232468
     atom   42 type  6   force =    -0.00000000    0.00019133   13.97242950
     atom   43 type  6   force =     0.00000000    0.00020630  -13.97239323
     atom   44 type  6   force =     0.00000000    0.00020531   13.97248795
     atom   45 type  6   force =    -0.00000000   -0.00018833  -13.97232468
     atom   46 type  6   force =     0.00000000   -0.00019133   13.97242950
     atom   47 type  6   force =     0.00000000   -0.00020630  -13.97239323
     atom   48 type  6   force =     0.00000000   -0.00020531   13.97248795
     The local contribution  to forces
     atom    1 type  1   force =    -0.00001956   -0.00000353   -0.00009123
     atom    2 type  1   force =    -0.00001956    0.00000353   -0.00009123
     atom    3 type  1   force =     0.00001956   -0.00000353   -0.00009123
     atom    4 type  1   force =     0.00001956    0.00000353   -0.00009123
     atom    5 type  2   force =    -0.00009253   -0.00007301   28.13168712
     atom    6 type  2   force =    -0.00008776   -0.00007960  -28.13158766
     atom    7 type  2   force =    -0.00009253    0.00007301   28.13168712
     atom    8 type  2   force =    -0.00008776    0.00007960  -28.13158766
     atom    9 type  2   force =     0.00009253   -0.00007301   28.13168712
     atom   10 type  2   force =     0.00008776   -0.00007960  -28.13158766
     atom   11 type  2   force =     0.00009253    0.00007301   28.13168712
     atom   12 type  2   force =     0.00008776    0.00007960  -28.13158766
     atom   13 type  3   force =    -0.00000000   -0.00000000    0.00016877
     atom   14 type  4   force =     0.00000000   -0.00000000   46.55172043
     atom   15 type  5   force =     0.00000000   -0.00000000  -46.55204520
     atom   16 type  3   force =    -0.00000000    0.00000000    0.00022583
     atom   17 type  5   force =    -0.00000000    0.00000000   46.55173716
     atom   18 type  4   force =     0.00000000    0.00000000  -46.55198559
     atom   19 type  3   force =     0.00000000   -0.00000000    0.00017530
     atom   20 type  5   force =     0.00000000   -0.00000000   46.55174861
     atom   21 type  4   force =     0.00000000    0.00000000  -46.55201149
     atom   22 type  3   force =     0.00000000    0.00000000    0.00019498
     atom   23 type  4   force =     0.00000000    0.00000000   46.55172028
     atom   24 type  5   force =     0.00000000    0.00000000  -46.55205418
     atom   25 type  6   force =    -0.00000000    0.00000000    1.72030528
     atom   26 type  6   force =    -0.00000000    0.00000000   -1.72002505
     atom   27 type  6   force =     0.00000000   -0.00000000    1.72041313
     atom   28 type  6   force =     0.00000000   -0.00000000   -1.72012929
     atom   29 type  6   force =     0.00000000    0.00000000    1.72046816
     atom   30 type  6   force =    -0.00000000    0.00000000   -1.72017186
     atom   31 type  6   force =     0.00000000   -0.00000000    1.72045731
     atom   32 type  6   force =     0.00000000    0.00000000   -1.72018985
     atom   33 type  6   force =    -0.00019213   -0.00000000   13.86364094
     atom   34 type  6   force =    -0.00019318    0.00000000  -13.86374134
     atom   35 type  6   force =    -0.00020858    0.00000000   13.86371441
     atom   36 type  6   force =    -0.00020594    0.00000000  -13.86381916
     atom   37 type  6   force =     0.00019213    0.00000000   13.86364094
     atom   38 type  6   force =     0.00019318   -0.00000000  -13.86374134
     atom   39 type  6   force =     0.00020858   -0.00000000   13.86371441
     atom   40 type  6   force =     0.00020594   -0.00000000  -13.86381916
     atom   41 type  6   force =     0.00000000   -0.00018396   13.86054934
     atom   42 type  6   force =    -0.00000000   -0.00018744  -13.86065557
     atom   43 type  6   force =    -0.00000000   -0.00020056   13.86061812
     atom   44 type  6   force =    -0.00000000   -0.00019884  -13.86071489
     atom   45 type  6   force =    -0.00000000    0.00018396   13.86054934
     atom   46 type  6   force =     0.00000000    0.00018744  -13.86065557
     atom   47 type  6   force =     0.00000000    0.00020056   13.86061812
     atom   48 type  6   force =     0.00000000    0.00019884  -13.86071489
     The core correction contribution to forces
     atom    1 type  1   force =     0.00000004    0.00000003   -0.00000000
     atom    2 type  1   force =     0.00000004   -0.00000003   -0.00000000
     atom    3 type  1   force =    -0.00000004    0.00000003   -0.00000000
     atom    4 type  1   force =    -0.00000004   -0.00000003   -0.00000000
     atom    5 type  2   force =    -0.00000010   -0.00000004    0.00070582
     atom    6 type  2   force =    -0.00000011   -0.00000002   -0.00070579
     atom    7 type  2   force =    -0.00000010    0.00000004    0.00070582
     atom    8 type  2   force =    -0.00000011    0.00000002   -0.00070579
     atom    9 type  2   force =     0.00000010   -0.00000004    0.00070582
     atom   10 type  2   force =     0.00000011   -0.00000002   -0.00070579
     atom   11 type  2   force =     0.00000010    0.00000004    0.00070582
     atom   12 type  2   force =     0.00000011    0.00000002   -0.00070579
     atom   13 type  3   force =     0.00000000    0.00000000   -0.00000001
     atom   14 type  4   force =    -0.00000000    0.00000000    0.00002979
     atom   15 type  5   force =    -0.00000000    0.00000000   -0.00002980
     atom   16 type  3   force =     0.00000000    0.00000000   -0.00000001
     atom   17 type  5   force =    -0.00000000    0.00000000    0.00002976
     atom   18 type  4   force =     0.00000000    0.00000000   -0.00002976
     atom   19 type  3   force =     0.00000000    0.00000000   -0.00000001
     atom   20 type  5   force =     0.00000000   -0.00000000    0.00002977
     atom   21 type  4   force =     0.00000000   -0.00000000   -0.00002977
     atom   22 type  3   force =     0.00000000    0.00000000   -0.00000001
     atom   23 type  4   force =     0.00000000    0.00000000    0.00002974
     atom   24 type  5   force =     0.00000000    0.00000000   -0.00002976
     atom   25 type  6   force =     0.00000000   -0.00000000    0.00370784
     atom   26 type  6   force =     0.00000000    0.00000000   -0.00370783
     atom   27 type  6   force =     0.00000000    0.00000000    0.00370785
     atom   28 type  6   force =     0.00000000    0.00000000   -0.00370784
     atom   29 type  6   force =     0.00000000   -0.00000000    0.00370785
     atom   30 type  6   force =     0.00000000    0.00000000   -0.00370785
     atom   31 type  6   force =    -0.00000000   -0.00000000    0.00370784
     atom   32 type  6   force =     0.00000000    0.00000000   -0.00370783
     atom   33 type  6   force =     0.00000002   -0.00000000   -0.00042195
     atom   34 type  6   force =     0.00000001   -0.00000000    0.00042193
     atom   35 type  6   force =     0.00000001    0.00000000   -0.00042198
     atom   36 type  6   force =     0.00000002   -0.00000000    0.00042197
     atom   37 type  6   force =    -0.00000002    0.00000000   -0.00042195
     atom   38 type  6   force =    -0.00000001    0.00000000    0.00042193
     atom   39 type  6   force =    -0.00000001   -0.00000000   -0.00042198
     atom   40 type  6   force =    -0.00000002    0.00000000    0.00042197
     atom   41 type  6   force =    -0.00000000    0.00000002   -0.00041924
     atom   42 type  6   force =    -0.00000000    0.00000001    0.00041923
     atom   43 type  6   force =    -0.00000000    0.00000001   -0.00041927
     atom   44 type  6   force =    -0.00000000    0.00000002    0.00041925
     atom   45 type  6   force =     0.00000000   -0.00000002   -0.00041924
     atom   46 type  6   force =     0.00000000   -0.00000001    0.00041923
     atom   47 type  6   force =    -0.00000000   -0.00000001   -0.00041927
     atom   48 type  6   force =     0.00000000   -0.00000002    0.00041925
     The Hubbard contrib.    to forces
     atom    1 type  1   force =    -0.00000001   -0.00000001   -0.00000000
     atom    2 type  1   force =    -0.00000001    0.00000001   -0.00000000
     atom    3 type  1   force =     0.00000001   -0.00000001   -0.00000000
     atom    4 type  1   force =     0.00000001    0.00000001   -0.00000000
     atom    5 type  2   force =     0.00000000   -0.00000000   -0.00048142
     atom    6 type  2   force =    -0.00000000   -0.00000000    0.00048141
     atom    7 type  2   force =     0.00000000    0.00000000   -0.00048142
     atom    8 type  2   force =    -0.00000000    0.00000000    0.00048141
     atom    9 type  2   force =    -0.00000000   -0.00000000   -0.00048142
     atom   10 type  2   force =     0.00000000   -0.00000000    0.00048141
     atom   11 type  2   force =    -0.00000000    0.00000000   -0.00048142
     atom   12 type  2   force =     0.00000000    0.00000000    0.00048141
     atom   13 type  3   force =     0.00000000    0.00000000   -0.00000000
     atom   14 type  4   force =     0.00000000    0.00000000    0.00107151
     atom   15 type  5   force =     0.00000000    0.00000000   -0.00107139
     atom   16 type  3   force =     0.00000000    0.00000000   -0.00000000
     atom   17 type  5   force =     0.00000000    0.00000000    0.00107182
     atom   18 type  4   force =     0.00000000    0.00000000   -0.00107180
     atom   19 type  3   force =     0.00000000    0.00000000   -0.00000000
     atom   20 type  5   force =     0.00000000    0.00000000    0.00107180
     atom   21 type  4   force =     0.00000000    0.00000000   -0.00107177
     atom   22 type  3   force =     0.00000000    0.00000000   -0.00000000
     atom   23 type  4   force =     0.00000000    0.00000000    0.00107200
     atom   24 type  5   force =     0.00000000    0.00000000   -0.00107187
     atom   25 type  6   force =     0.00000000    0.00000000   -0.00004839
     atom   26 type  6   force =     0.00000000    0.00000000    0.00004839
     atom   27 type  6   force =     0.00000000    0.00000000   -0.00004840
     atom   28 type  6   force =     0.00000000    0.00000000    0.00004839
     atom   29 type  6   force =     0.00000000    0.00000000   -0.00004840
     atom   30 type  6   force =     0.00000000    0.00000000    0.00004839
     atom   31 type  6   force =     0.00000000    0.00000000   -0.00004840
     atom   32 type  6   force =     0.00000000    0.00000000    0.00004839
     atom   33 type  6   force =     0.00000002    0.00000000    0.00010262
     atom   34 type  6   force =     0.00000002    0.00000000   -0.00010262
     atom   35 type  6   force =     0.00000002    0.00000000    0.00010262
     atom   36 type  6   force =     0.00000002    0.00000000   -0.00010262
     atom   37 type  6   force =    -0.00000002    0.00000000    0.00010262
     atom   38 type  6   force =    -0.00000002    0.00000000   -0.00010262
     atom   39 type  6   force =    -0.00000002    0.00000000    0.00010262
     atom   40 type  6   force =    -0.00000002    0.00000000   -0.00010262
     atom   41 type  6   force =     0.00000000    0.00000002    0.00010289
     atom   42 type  6   force =     0.00000000    0.00000002   -0.00010289
     atom   43 type  6   force =     0.00000000    0.00000002    0.00010289
     atom   44 type  6   force =     0.00000000    0.00000002   -0.00010289
     atom   45 type  6   force =     0.00000000   -0.00000002    0.00010289
     atom   46 type  6   force =     0.00000000   -0.00000002   -0.00010289
     atom   47 type  6   force =     0.00000000   -0.00000002    0.00010289
     atom   48 type  6   force =     0.00000000   -0.00000002   -0.00010289
     The SCF correction term to forces
     atom    1 type  1   force =     0.00000040    0.00000236    0.00000153
     atom    2 type  1   force =     0.00000040   -0.00000236    0.00000153
     atom    3 type  1   force =    -0.00000040    0.00000236    0.00000153
     atom    4 type  1   force =    -0.00000040   -0.00000236    0.00000153
     atom    5 type  2   force =     0.00001282    0.00001248   -0.00004108
     atom    6 type  2   force =     0.00001336    0.00001202    0.00004007
     atom    7 type  2   force =     0.00001282   -0.00001248   -0.00004108
     atom    8 type  2   force =     0.00001336   -0.00001202    0.00004007
     atom    9 type  2   force =    -0.00001282    0.00001248   -0.00004108
     atom   10 type  2   force =    -0.00001336    0.00001202    0.00004007
     atom   11 type  2   force =    -0.00001282   -0.00001248   -0.00004108
     atom   12 type  2   force =    -0.00001336   -0.00001202    0.00004007
     atom   13 type  3   force =     0.00000000   -0.00000000   -0.00000096
     atom   14 type  4   force =    -0.00000000   -0.00000000    0.00006716
     atom   15 type  5   force =     0.00000000    0.00000000   -0.00006446
     atom   16 type  3   force =     0.00000000   -0.00000000   -0.00000161
     atom   17 type  5   force =    -0.00000000   -0.00000000    0.00005161
     atom   18 type  4   force =     0.00000000    0.00000000   -0.00004948
     atom   19 type  3   force =     0.00000000   -0.00000000   -0.00000258
     atom   20 type  5   force =    -0.00000000   -0.00000000    0.00005318
     atom   21 type  4   force =     0.00000000    0.00000000   -0.00004872
     atom   22 type  3   force =     0.00000000   -0.00000000   -0.00000176
     atom   23 type  4   force =    -0.00000000   -0.00000000    0.00003679
     atom   24 type  5   force =     0.00000000    0.00000000   -0.00003427
     atom   25 type  6   force =     0.00000000   -0.00000000    0.00000380
     atom   26 type  6   force =    -0.00000000    0.00000000   -0.00000483
     atom   27 type  6   force =     0.00000000   -0.00000000   -0.00003433
     atom   28 type  6   force =    -0.00000000    0.00000000    0.00003275
     atom   29 type  6   force =     0.00000000   -0.00000000   -0.00003056
     atom   30 type  6   force =    -0.00000000    0.00000000    0.00002981
     atom   31 type  6   force =     0.00000000    0.00000000   -0.00003715
     atom   32 type  6   force =    -0.00000000    0.00000000    0.00003616
     atom   33 type  6   force =     0.00000281   -0.00000000    0.00001911
     atom   34 type  6   force =     0.00000290    0.00000000   -0.00001791
     atom   35 type  6   force =     0.00000055   -0.00000000    0.00001471
     atom   36 type  6   force =     0.00000052    0.00000000   -0.00001385
     atom   37 type  6   force =    -0.00000281   -0.00000000    0.00001911
     atom   38 type  6   force =    -0.00000290    0.00000000   -0.00001791
     atom   39 type  6   force =    -0.00000055   -0.00000000    0.00001471
     atom   40 type  6   force =    -0.00000052    0.00000000   -0.00001385
     atom   41 type  6   force =    -0.00000000    0.00000422    0.00001928
     atom   42 type  6   force =     0.00000000    0.00000401   -0.00001844
     atom   43 type  6   force =    -0.00000000    0.00000198    0.00001455
     atom   44 type  6   force =     0.00000000    0.00000170   -0.00001332
     atom   45 type  6   force =    -0.00000000   -0.00000422    0.00001928
     atom   46 type  6   force =     0.00000000   -0.00000401   -0.00001844
     atom   47 type  6   force =    -0.00000000   -0.00000198    0.00001455
     atom   48 type  6   force =     0.00000000   -0.00000170   -0.00001332

     Total force =     0.019058     Total SCF correction =     0.000220

     Writing all to output data dir ./YBCO6/YBCO6.save/
 
     init_run     :     26.82s CPU     28.21s WALL (       1 calls)
     electrons    :   1659.08s CPU   1748.02s WALL (       1 calls)
     forces       :    253.49s CPU    258.49s WALL (       1 calls)

     Called by init_run:
     wfcinit      :     17.89s CPU     18.32s WALL (       1 calls)
     wfcinit:atom :      0.06s CPU      0.10s WALL (       2 calls)
     wfcinit:wfcr :     12.49s CPU     12.77s WALL (       2 calls)
     potinit      :      0.81s CPU      0.91s WALL (       1 calls)
     hinit0       :      1.47s CPU      1.49s WALL (       1 calls)

     Called by electrons:
     c_bands      :    815.65s CPU    831.65s WALL (      31 calls)
     sum_band     :    603.90s CPU    646.65s WALL (      31 calls)
     v_of_rho     :     23.54s CPU     25.11s WALL (      32 calls)
     v_h          :      1.18s CPU      1.28s WALL (      32 calls)
     v_xc         :     23.06s CPU     24.59s WALL (      33 calls)
     newd         :    214.10s CPU    243.06s WALL (      32 calls)
     mix_rho      :      6.46s CPU      6.78s WALL (      31 calls)

     Called by c_bands:
     init_us_2    :      7.37s CPU      7.40s WALL (     132 calls)
     init_us_2:cp :      7.37s CPU      7.40s WALL (     132 calls)
     cegterg      :    779.02s CPU    794.91s WALL (      62 calls)

     Called by sum_band:
     sum_band:wei :      0.02s CPU      0.02s WALL (      31 calls)
     sum_band:loo :    114.37s CPU    116.92s WALL (      31 calls)
     sum_band:buf :      1.11s CPU      1.11s WALL (      62 calls)
     sum_band:ini :      3.40s CPU      3.40s WALL (      62 calls)
     sum_band:cal :     40.83s CPU     40.95s WALL (      62 calls)
     sum_band:bec :      0.08s CPU      0.08s WALL (      62 calls)
     addusdens    :    481.33s CPU    519.85s WALL (      31 calls)
                                        0.00s GPU  (      31 calls)
     addusd:skk   :      1.99s CPU      2.78s WALL (     186 calls)
                                        0.00s GPU  (     186 calls)

     Called by *egterg:
     cdiaghg      :     19.02s CPU     20.02s WALL (     350 calls)
     cegterg:over :     71.23s CPU     71.73s WALL (     288 calls)
     cegterg:upda :     41.77s CPU     42.85s WALL (     288 calls)
     cegterg:last :     98.42s CPU     98.67s WALL (     112 calls)
     cdiaghg:chol :      0.40s CPU      0.43s WALL (     350 calls)
     cdiaghg:inve :      0.20s CPU      0.22s WALL (     350 calls)
     cdiaghg:para :      3.93s CPU      4.37s WALL (     700 calls)
     h_psi        :    430.68s CPU    441.07s WALL (     352 calls)
     s_psi        :    100.25s CPU    100.32s WALL (     358 calls)
     g_psi        :      1.25s CPU      1.25s WALL (     288 calls)

     Called by h_psi:
     h_psi:calbec :     94.39s CPU     94.78s WALL (     352 calls)
     vloc_psi     :    209.29s CPU    217.48s WALL (     352 calls)
     add_vuspsi   :     96.85s CPU     96.86s WALL (     352 calls)
     vhpsi        :     27.80s CPU     28.11s WALL (     352 calls)

     General routines
     calbec       :    193.26s CPU    194.38s WALL (    3148 calls)
     fft          :     15.98s CPU     17.80s WALL (     813 calls)
     ffts         :      0.51s CPU      0.53s WALL (     126 calls)
     fftw         :    150.95s CPU    157.01s WALL (   98212 calls)
     interpolate  :      1.61s CPU      1.77s WALL (      64 calls)
     davcio       :      0.00s CPU      0.01s WALL (       2 calls)
 
     Parallel routines

     Hubbard U routines
     new_ns       :      3.45s CPU      3.46s WALL (      31 calls)
     vhpsi        :     27.80s CPU     28.11s WALL (     352 calls)
     force_hub    :    236.26s CPU    239.91s WALL (       1 calls)
                                        0.00s GPU  (       1 calls)
 
     PWSCF        :  32m19.75s CPU  33m55.41s WALL

 
   This run was terminated on:   0:35:43  27Dec2023            

=------------------------------------------------------------------------------=
   JOB DONE.
=------------------------------------------------------------------------------=
