
     Program PWSCF v.7.2 starts on  4Dec2023 at 10:19:45 

     This program is part of the open-source Quantum ESPRESSO suite
     for quantum simulation of materials; please cite
         "P. Giannozzi et al., J. Phys.:Condens. Matter 21 395502 (2009);
         "P. Giannozzi et al., J. Phys.:Condens. Matter 29 465901 (2017);
         "P. Giannozzi et al., J. Chem. Phys. 152 154105 (2020);
          URL http://www.quantum-espresso.org", 
     in publications or presentations arising from this work. More details at
     http://www.quantum-espresso.org/quote

     Parallel version (MPI), running on     4 processors

     MPI processes distributed on     1 nodes
     9057 MiB available memory on the printing compute node when the environment starts
 
     Waiting for input...
     Reading input from standard input
Warning: card &CELL ignored
Warning: card / ignored

     Current dimensions of program PWSCF are:
     Max number of different atomic species (ntypx) = 10
     Max number of k-points (npk) =  40000
     Max angular momentum in pseudopotentials (lmaxx) =  4

     File ./YBCO.relax/YBCO.relax.update deleted, as requested

     File ./YBCO.relax/YBCO.relax.bfgs deleted, as requested
     file Ba.pbe-spn-kjpaw_psl.1.0.0.UPF: wavefunction(s)  5S 6S renormalized
     file Cu.paw.z_11.ld1.psl.v1.0.0-low.upf: wavefunction(s)  4S 3D renormalized
     file Cu.paw.z_11.ld1.psl.v1.0.0-low.upf: wavefunction(s)  4S 3D renormalized
     file O.pbe-n-kjpaw_psl.0.1.UPF: wavefunction(s)  2P renormalized
 
     R & G space division:  proc/nbgrp/npool/nimage =       4
     Subspace diagonalization in iterative solution of the eigenvalue problem:
     a serial algorithm will be used

 
     Parallelization info
     --------------------
     sticks:   dense  smooth     PW     G-vecs:    dense   smooth      PW
     Min        1011     505    140               146980    51941    7668
     Max        1014     506    141               146985    51948    7677
     Sum        4047    2021    561               587931   207777   30685
 
     Using Slab Decomposition
 


     bravais-lattice index     =            8
     lattice parameter (alat)  =       7.2193  a.u.
     unit-cell volume          =    1170.3381 (a.u.)^3
     number of atoms/cell      =           12
     number of atomic types    =            5
     number of electrons       =       100.00
     number of Kohn-Sham states=           60
     kinetic-energy cutoff     =     120.0000  Ry
     charge density cutoff     =     960.0000  Ry
     scf convergence threshold =      1.0E-08
     mixing beta               =       0.1000
     number of iterations used =            8  plain     mixing
     energy convergence thresh.=      1.0E-04
     force convergence thresh. =      1.0E-03
     Exchange-correlation= SLA  PW   PBX  PBC
                           (   1   4   3   4   0   0   0)
     nstep                     =           50

     Hubbard projectors: ortho-atomic
     Hubbard parameters of DFT+U (Dudarev formulation) in eV:
     U(Cu1-3d) = 10.0000

     Internal variables: lda_plus_u = T, lda_plus_u_kind = 0

     celldm(1)=   7.219321  celldm(2)=   1.017061  celldm(3)=   3.058265
     celldm(4)=   0.000000  celldm(5)=   0.000000  celldm(6)=   0.000000

     crystal axes: (cart. coord. in units of alat)
               a(1) = (   1.000000   0.000000   0.000000 )  
               a(2) = (   0.000000   1.017061   0.000000 )  
               a(3) = (   0.000000   0.000000   3.058265 )  

     reciprocal axes: (cart. coord. in units 2 pi/alat)
               b(1) = (  1.000000  0.000000  0.000000 )  
               b(2) = (  0.000000  0.983225  0.000000 )  
               b(3) = (  0.000000  0.000000  0.326983 )  


     PseudoPot. # 1 for Y  read from file:
     ~/q-e/pseudo/Y_pbe_v1.uspp.F.UPF
     MD5 check sum: Not computed, couldn't open file
     Pseudo is Ultrasoft + core correction, Zval = 11.0
     Generated by new atomic code, or converted to UPF format
     Using radial grid of  885 points,  6 beta functions with: 
                l(1) =   0
                l(2) =   0
                l(3) =   1
                l(4) =   1
                l(5) =   2
                l(6) =   2
     Q(r) pseudized with  6 coefficients,  rinner =    1.200   1.200   1.200
                                                       1.200   1.200

     PseudoPot. # 2 for Ba read from file:
     ~/q-e/pseudo/Ba.pbe-spn-kjpaw_psl.1.0.0.UPF
     MD5 check sum: Not computed, couldn't open file
     Pseudo is Projector augmented-wave + core cor, Zval = 10.0
     Generated using "atomic" code by A. Dal Corso  v.5.1
     Shape of augmentation charge: PSQ
     Using radial grid of 1251 points,  7 beta functions with: 
                l(1) =   0
                l(2) =   0
                l(3) =   0
                l(4) =   1
                l(5) =   1
                l(6) =   2
                l(7) =   2
     Q(r) pseudized with 0 coefficients 


     PseudoPot. # 3 for Cu read from file:
     ~/q-e/pseudo/Cu.paw.z_11.ld1.psl.v1.0.0-low.upf
     MD5 check sum: Not computed, couldn't open file
     Pseudo is Projector augmented-wave + core cor, Zval = 11.0
     Generated using &quot;atomic&quot; code by A. Dal Corso  v.6.3MaX
     Shape of augmentation charge: PSQ
     Using radial grid of 1199 points,  6 beta functions with: 
                l(1) =   0
                l(2) =   0
                l(3) =   1
                l(4) =   1
                l(5) =   2
                l(6) =   2
     Q(r) pseudized with 0 coefficients 


     PseudoPot. # 4 for Cu read from file:
     ~/q-e/pseudo/Cu.paw.z_11.ld1.psl.v1.0.0-low.upf
     MD5 check sum: Not computed, couldn't open file
     Pseudo is Projector augmented-wave + core cor, Zval = 11.0
     Generated using &quot;atomic&quot; code by A. Dal Corso  v.6.3MaX
     Shape of augmentation charge: PSQ
     Using radial grid of 1199 points,  6 beta functions with: 
                l(1) =   0
                l(2) =   0
                l(3) =   1
                l(4) =   1
                l(5) =   2
                l(6) =   2
     Q(r) pseudized with 0 coefficients 


     PseudoPot. # 5 for O  read from file:
     ~/q-e/pseudo/O.pbe-n-kjpaw_psl.0.1.UPF
     MD5 check sum: Not computed, couldn't open file
     Pseudo is Projector augmented-wave + core cor, Zval =  6.0
     Generated using "atomic" code by A. Dal Corso  v.5.0.99 svn rev. 10869
     Shape of augmentation charge: BESSEL
     Using radial grid of 1095 points,  4 beta functions with: 
                l(1) =   0
                l(2) =   0
                l(3) =   1
                l(4) =   1
     Q(r) pseudized with 0 coefficients 


     atomic species   valence    mass     pseudopotential
     Y                11.00    88.90584     Y ( 1.00)
     Ba               10.00   137.32700     Ba( 1.00)
     Cu               11.00    63.54600     Cu( 1.00)
     Cu1              11.00    63.54600     Cu( 1.00)
     O                 6.00    15.99900     O ( 1.00)

      8 Sym. Ops., with inversion, found


                                    s                        frac. trans.

      isym =  1     identity                                     

 cryst.   s( 1) = (     1          0          0      )
                  (     0          1          0      )
                  (     0          0          1      )

 cart.    s( 1) = (  1.0000000  0.0000000  0.0000000 )
                  (  0.0000000  1.0000000  0.0000000 )
                  (  0.0000000  0.0000000  1.0000000 )


      isym =  2     180 deg rotation - cart. axis [0,0,1]        

 cryst.   s( 2) = (    -1          0          0      )
                  (     0         -1          0      )
                  (     0          0          1      )

 cart.    s( 2) = ( -1.0000000  0.0000000  0.0000000 )
                  (  0.0000000 -1.0000000  0.0000000 )
                  (  0.0000000  0.0000000  1.0000000 )


      isym =  3     180 deg rotation - cart. axis [0,1,0]        

 cryst.   s( 3) = (    -1          0          0      )
                  (     0          1          0      )
                  (     0          0         -1      )

 cart.    s( 3) = ( -1.0000000  0.0000000  0.0000000 )
                  (  0.0000000  1.0000000  0.0000000 )
                  (  0.0000000  0.0000000 -1.0000000 )


      isym =  4     180 deg rotation - cart. axis [1,0,0]        

 cryst.   s( 4) = (     1          0          0      )
                  (     0         -1          0      )
                  (     0          0         -1      )

 cart.    s( 4) = (  1.0000000  0.0000000  0.0000000 )
                  (  0.0000000 -1.0000000  0.0000000 )
                  (  0.0000000  0.0000000 -1.0000000 )


      isym =  5     inversion                                    

 cryst.   s( 5) = (    -1          0          0      )
                  (     0         -1          0      )
                  (     0          0         -1      )

 cart.    s( 5) = ( -1.0000000  0.0000000  0.0000000 )
                  (  0.0000000 -1.0000000  0.0000000 )
                  (  0.0000000  0.0000000 -1.0000000 )


      isym =  6     inv. 180 deg rotation - cart. axis [0,0,1]   

 cryst.   s( 6) = (     1          0          0      )
                  (     0          1          0      )
                  (     0          0         -1      )

 cart.    s( 6) = (  1.0000000  0.0000000  0.0000000 )
                  (  0.0000000  1.0000000  0.0000000 )
                  (  0.0000000  0.0000000 -1.0000000 )


      isym =  7     inv. 180 deg rotation - cart. axis [0,1,0]   

 cryst.   s( 7) = (     1          0          0      )
                  (     0         -1          0      )
                  (     0          0          1      )

 cart.    s( 7) = (  1.0000000  0.0000000  0.0000000 )
                  (  0.0000000 -1.0000000  0.0000000 )
                  (  0.0000000  0.0000000  1.0000000 )


      isym =  8     inv. 180 deg rotation - cart. axis [1,0,0]   

 cryst.   s( 8) = (    -1          0          0      )
                  (     0          1          0      )
                  (     0          0          1      )

 cart.    s( 8) = ( -1.0000000  0.0000000  0.0000000 )
                  (  0.0000000  1.0000000  0.0000000 )
                  (  0.0000000  0.0000000  1.0000000 )


     point group D_2h (mmm) 
     there are  8 classes
     the character table:

       E     C2    C2'   C2''  i     s_v   s_v'  s_v''
A_g    1.00  1.00  1.00  1.00  1.00  1.00  1.00  1.00
B_1g   1.00  1.00 -1.00 -1.00  1.00  1.00 -1.00 -1.00
B_2g   1.00 -1.00  1.00 -1.00  1.00 -1.00  1.00 -1.00
B_3g   1.00 -1.00 -1.00  1.00  1.00 -1.00 -1.00  1.00
A_u    1.00  1.00  1.00  1.00 -1.00 -1.00 -1.00 -1.00
B_1u   1.00  1.00 -1.00 -1.00 -1.00 -1.00  1.00  1.00
B_2u   1.00 -1.00  1.00 -1.00 -1.00  1.00 -1.00  1.00
B_3u   1.00 -1.00 -1.00  1.00 -1.00  1.00  1.00 -1.00

     the symmetry operations in each class and the name of the first element:

     E        1
          identity                                               
     C2       2
          180 deg rotation - cart. axis [0,0,1]                  
     C2'      4
          180 deg rotation - cart. axis [1,0,0]                  
     C2''     3
          180 deg rotation - cart. axis [0,1,0]                  
     i        5
          inversion                                              
     s_v      6
          inv. 180 deg rotation - cart. axis [0,0,1]             
     s_v'     8
          inv. 180 deg rotation - cart. axis [1,0,0]             
     s_v''    7
          inv. 180 deg rotation - cart. axis [0,1,0]             

   Cartesian axes

     site n.     atom                  positions (alat units)
         1        Y      tau(   1) = (   0.5000000   0.5085307   1.5291325  )
         2        Ba     tau(   2) = (   0.5000000   0.5085307   0.5625067  )
         3        Ba     tau(   3) = (   0.5000000   0.5085307   2.4957584  )
         4        Cu     tau(   4) = (   0.0000000   0.0000000   0.0000000  )
         5        Cu1    tau(   5) = (   0.0000000   0.0000000   1.0857147  )
         6        Cu1    tau(   6) = (   0.0000000   0.0000000   1.9725504  )
         7        O      tau(   7) = (   0.5000000   0.0000000   1.1566053  )
         8        O      tau(   8) = (   0.5000000   0.0000000   1.9016598  )
         9        O      tau(   9) = (   0.0000000   0.5085307   1.1527518  )
        10        O      tau(  10) = (   0.0000000   0.5085307   1.9055132  )
        11        O      tau(  11) = (   0.0000000   0.0000000   0.4844292  )
        12        O      tau(  12) = (   0.0000000   0.0000000   2.5738359  )

   Crystallographic axes

     site n.     atom                  positions (cryst. coord.)
         1        Y      tau(   1) = (  0.5000000  0.5000000  0.5000000  )
         2        Ba     tau(   2) = (  0.5000000  0.5000000  0.1839300  )
         3        Ba     tau(   3) = (  0.5000000  0.5000000  0.8160700  )
         4        Cu     tau(   4) = (  0.0000000  0.0000000  0.0000000  )
         5        Cu1    tau(   5) = (  0.0000000  0.0000000  0.3550100  )
         6        Cu1    tau(   6) = (  0.0000000  0.0000000  0.6449900  )
         7        O      tau(   7) = (  0.5000000  0.0000000  0.3781900  )
         8        O      tau(   8) = (  0.5000000  0.0000000  0.6218100  )
         9        O      tau(   9) = (  0.0000000  0.5000000  0.3769300  )
        10        O      tau(  10) = (  0.0000000  0.5000000  0.6230700  )
        11        O      tau(  11) = (  0.0000000  0.0000000  0.1584000  )
        12        O      tau(  12) = (  0.0000000  0.0000000  0.8416000  )

     number of k points=   125  Methfessel-Paxton smearing, width (Ry)=  0.0300
                       cart. coord. in units 2pi/alat
        k(    1) = (   0.0000000   0.0000000   0.0000000), wk =   0.0039062
        k(    2) = (   0.0000000   0.0000000   0.0408728), wk =   0.0078125
        k(    3) = (   0.0000000   0.0000000   0.0817457), wk =   0.0078125
        k(    4) = (   0.0000000   0.0000000   0.1226185), wk =   0.0078125
        k(    5) = (   0.0000000   0.0000000  -0.1634914), wk =   0.0039062
        k(    6) = (   0.0000000   0.1229031   0.0000000), wk =   0.0078125
        k(    7) = (   0.0000000   0.1229031   0.0408728), wk =   0.0156250
        k(    8) = (   0.0000000   0.1229031   0.0817457), wk =   0.0156250
        k(    9) = (   0.0000000   0.1229031   0.1226185), wk =   0.0156250
        k(   10) = (   0.0000000   0.1229031  -0.1634914), wk =   0.0078125
        k(   11) = (   0.0000000   0.2458062   0.0000000), wk =   0.0078125
        k(   12) = (   0.0000000   0.2458062   0.0408728), wk =   0.0156250
        k(   13) = (   0.0000000   0.2458062   0.0817457), wk =   0.0156250
        k(   14) = (   0.0000000   0.2458062   0.1226185), wk =   0.0156250
        k(   15) = (   0.0000000   0.2458062  -0.1634914), wk =   0.0078125
        k(   16) = (   0.0000000   0.3687093   0.0000000), wk =   0.0078125
        k(   17) = (   0.0000000   0.3687093   0.0408728), wk =   0.0156250
        k(   18) = (   0.0000000   0.3687093   0.0817457), wk =   0.0156250
        k(   19) = (   0.0000000   0.3687093   0.1226185), wk =   0.0156250
        k(   20) = (   0.0000000   0.3687093  -0.1634914), wk =   0.0078125
        k(   21) = (   0.0000000  -0.4916124   0.0000000), wk =   0.0039062
        k(   22) = (   0.0000000  -0.4916124   0.0408728), wk =   0.0078125
        k(   23) = (   0.0000000  -0.4916124   0.0817457), wk =   0.0078125
        k(   24) = (   0.0000000  -0.4916124   0.1226185), wk =   0.0078125
        k(   25) = (   0.0000000  -0.4916124  -0.1634914), wk =   0.0039062
        k(   26) = (   0.1250000   0.0000000   0.0000000), wk =   0.0078125
        k(   27) = (   0.1250000   0.0000000   0.0408728), wk =   0.0156250
        k(   28) = (   0.1250000   0.0000000   0.0817457), wk =   0.0156250
        k(   29) = (   0.1250000   0.0000000   0.1226185), wk =   0.0156250
        k(   30) = (   0.1250000   0.0000000  -0.1634914), wk =   0.0078125
        k(   31) = (   0.1250000   0.1229031   0.0000000), wk =   0.0156250
        k(   32) = (   0.1250000   0.1229031   0.0408728), wk =   0.0312500
        k(   33) = (   0.1250000   0.1229031   0.0817457), wk =   0.0312500
        k(   34) = (   0.1250000   0.1229031   0.1226185), wk =   0.0312500
        k(   35) = (   0.1250000   0.1229031  -0.1634914), wk =   0.0156250
        k(   36) = (   0.1250000   0.2458062   0.0000000), wk =   0.0156250
        k(   37) = (   0.1250000   0.2458062   0.0408728), wk =   0.0312500
        k(   38) = (   0.1250000   0.2458062   0.0817457), wk =   0.0312500
        k(   39) = (   0.1250000   0.2458062   0.1226185), wk =   0.0312500
        k(   40) = (   0.1250000   0.2458062  -0.1634914), wk =   0.0156250
        k(   41) = (   0.1250000   0.3687093   0.0000000), wk =   0.0156250
        k(   42) = (   0.1250000   0.3687093   0.0408728), wk =   0.0312500
        k(   43) = (   0.1250000   0.3687093   0.0817457), wk =   0.0312500
        k(   44) = (   0.1250000   0.3687093   0.1226185), wk =   0.0312500
        k(   45) = (   0.1250000   0.3687093  -0.1634914), wk =   0.0156250
        k(   46) = (   0.1250000  -0.4916124   0.0000000), wk =   0.0078125
        k(   47) = (   0.1250000  -0.4916124   0.0408728), wk =   0.0156250
        k(   48) = (   0.1250000  -0.4916124   0.0817457), wk =   0.0156250
        k(   49) = (   0.1250000  -0.4916124   0.1226185), wk =   0.0156250
        k(   50) = (   0.1250000  -0.4916124  -0.1634914), wk =   0.0078125
        k(   51) = (   0.2500000   0.0000000   0.0000000), wk =   0.0078125
        k(   52) = (   0.2500000   0.0000000   0.0408728), wk =   0.0156250
        k(   53) = (   0.2500000   0.0000000   0.0817457), wk =   0.0156250
        k(   54) = (   0.2500000   0.0000000   0.1226185), wk =   0.0156250
        k(   55) = (   0.2500000   0.0000000  -0.1634914), wk =   0.0078125
        k(   56) = (   0.2500000   0.1229031   0.0000000), wk =   0.0156250
        k(   57) = (   0.2500000   0.1229031   0.0408728), wk =   0.0312500
        k(   58) = (   0.2500000   0.1229031   0.0817457), wk =   0.0312500
        k(   59) = (   0.2500000   0.1229031   0.1226185), wk =   0.0312500
        k(   60) = (   0.2500000   0.1229031  -0.1634914), wk =   0.0156250
        k(   61) = (   0.2500000   0.2458062   0.0000000), wk =   0.0156250
        k(   62) = (   0.2500000   0.2458062   0.0408728), wk =   0.0312500
        k(   63) = (   0.2500000   0.2458062   0.0817457), wk =   0.0312500
        k(   64) = (   0.2500000   0.2458062   0.1226185), wk =   0.0312500
        k(   65) = (   0.2500000   0.2458062  -0.1634914), wk =   0.0156250
        k(   66) = (   0.2500000   0.3687093   0.0000000), wk =   0.0156250
        k(   67) = (   0.2500000   0.3687093   0.0408728), wk =   0.0312500
        k(   68) = (   0.2500000   0.3687093   0.0817457), wk =   0.0312500
        k(   69) = (   0.2500000   0.3687093   0.1226185), wk =   0.0312500
        k(   70) = (   0.2500000   0.3687093  -0.1634914), wk =   0.0156250
        k(   71) = (   0.2500000  -0.4916124   0.0000000), wk =   0.0078125
        k(   72) = (   0.2500000  -0.4916124   0.0408728), wk =   0.0156250
        k(   73) = (   0.2500000  -0.4916124   0.0817457), wk =   0.0156250
        k(   74) = (   0.2500000  -0.4916124   0.1226185), wk =   0.0156250
        k(   75) = (   0.2500000  -0.4916124  -0.1634914), wk =   0.0078125
        k(   76) = (   0.3750000   0.0000000   0.0000000), wk =   0.0078125
        k(   77) = (   0.3750000   0.0000000   0.0408728), wk =   0.0156250
        k(   78) = (   0.3750000   0.0000000   0.0817457), wk =   0.0156250
        k(   79) = (   0.3750000   0.0000000   0.1226185), wk =   0.0156250
        k(   80) = (   0.3750000   0.0000000  -0.1634914), wk =   0.0078125
        k(   81) = (   0.3750000   0.1229031   0.0000000), wk =   0.0156250
        k(   82) = (   0.3750000   0.1229031   0.0408728), wk =   0.0312500
        k(   83) = (   0.3750000   0.1229031   0.0817457), wk =   0.0312500
        k(   84) = (   0.3750000   0.1229031   0.1226185), wk =   0.0312500
        k(   85) = (   0.3750000   0.1229031  -0.1634914), wk =   0.0156250
        k(   86) = (   0.3750000   0.2458062   0.0000000), wk =   0.0156250
        k(   87) = (   0.3750000   0.2458062   0.0408728), wk =   0.0312500
        k(   88) = (   0.3750000   0.2458062   0.0817457), wk =   0.0312500
        k(   89) = (   0.3750000   0.2458062   0.1226185), wk =   0.0312500
        k(   90) = (   0.3750000   0.2458062  -0.1634914), wk =   0.0156250
        k(   91) = (   0.3750000   0.3687093   0.0000000), wk =   0.0156250
        k(   92) = (   0.3750000   0.3687093   0.0408728), wk =   0.0312500
        k(   93) = (   0.3750000   0.3687093   0.0817457), wk =   0.0312500
        k(   94) = (   0.3750000   0.3687093   0.1226185), wk =   0.0312500
        k(   95) = (   0.3750000   0.3687093  -0.1634914), wk =   0.0156250
        k(   96) = (   0.3750000  -0.4916124   0.0000000), wk =   0.0078125
        k(   97) = (   0.3750000  -0.4916124   0.0408728), wk =   0.0156250
        k(   98) = (   0.3750000  -0.4916124   0.0817457), wk =   0.0156250
        k(   99) = (   0.3750000  -0.4916124   0.1226185), wk =   0.0156250
        k(  100) = (   0.3750000  -0.4916124  -0.1634914), wk =   0.0078125
        k(  101) = (  -0.5000000   0.0000000   0.0000000), wk =   0.0039062
        k(  102) = (  -0.5000000   0.0000000   0.0408728), wk =   0.0078125
        k(  103) = (  -0.5000000   0.0000000   0.0817457), wk =   0.0078125
        k(  104) = (  -0.5000000   0.0000000   0.1226185), wk =   0.0078125
        k(  105) = (  -0.5000000   0.0000000  -0.1634914), wk =   0.0039062
        k(  106) = (  -0.5000000   0.1229031   0.0000000), wk =   0.0078125
        k(  107) = (  -0.5000000   0.1229031   0.0408728), wk =   0.0156250
        k(  108) = (  -0.5000000   0.1229031   0.0817457), wk =   0.0156250
        k(  109) = (  -0.5000000   0.1229031   0.1226185), wk =   0.0156250
        k(  110) = (  -0.5000000   0.1229031  -0.1634914), wk =   0.0078125
        k(  111) = (  -0.5000000   0.2458062   0.0000000), wk =   0.0078125
        k(  112) = (  -0.5000000   0.2458062   0.0408728), wk =   0.0156250
        k(  113) = (  -0.5000000   0.2458062   0.0817457), wk =   0.0156250
        k(  114) = (  -0.5000000   0.2458062   0.1226185), wk =   0.0156250
        k(  115) = (  -0.5000000   0.2458062  -0.1634914), wk =   0.0078125
        k(  116) = (  -0.5000000   0.3687093   0.0000000), wk =   0.0078125
        k(  117) = (  -0.5000000   0.3687093   0.0408728), wk =   0.0156250
        k(  118) = (  -0.5000000   0.3687093   0.0817457), wk =   0.0156250
        k(  119) = (  -0.5000000   0.3687093   0.1226185), wk =   0.0156250
        k(  120) = (  -0.5000000   0.3687093  -0.1634914), wk =   0.0078125
        k(  121) = (  -0.5000000  -0.4916124   0.0000000), wk =   0.0039062
        k(  122) = (  -0.5000000  -0.4916124   0.0408728), wk =   0.0078125
        k(  123) = (  -0.5000000  -0.4916124   0.0817457), wk =   0.0078125
        k(  124) = (  -0.5000000  -0.4916124   0.1226185), wk =   0.0078125
        k(  125) = (  -0.5000000  -0.4916124  -0.1634914), wk =   0.0039062

                       cryst. coord.
        k(    1) = (   0.0000000   0.0000000   0.0000000), wk =   0.0039062
        k(    2) = (   0.0000000   0.0000000   0.1250000), wk =   0.0078125
        k(    3) = (   0.0000000   0.0000000   0.2500000), wk =   0.0078125
        k(    4) = (   0.0000000   0.0000000   0.3750000), wk =   0.0078125
        k(    5) = (   0.0000000   0.0000000  -0.5000000), wk =   0.0039062
        k(    6) = (   0.0000000   0.1250000   0.0000000), wk =   0.0078125
        k(    7) = (   0.0000000   0.1250000   0.1250000), wk =   0.0156250
        k(    8) = (   0.0000000   0.1250000   0.2500000), wk =   0.0156250
        k(    9) = (   0.0000000   0.1250000   0.3750000), wk =   0.0156250
        k(   10) = (   0.0000000   0.1250000  -0.5000000), wk =   0.0078125
        k(   11) = (   0.0000000   0.2500000   0.0000000), wk =   0.0078125
        k(   12) = (   0.0000000   0.2500000   0.1250000), wk =   0.0156250
        k(   13) = (   0.0000000   0.2500000   0.2500000), wk =   0.0156250
        k(   14) = (   0.0000000   0.2500000   0.3750000), wk =   0.0156250
        k(   15) = (   0.0000000   0.2500000  -0.5000000), wk =   0.0078125
        k(   16) = (   0.0000000   0.3750000   0.0000000), wk =   0.0078125
        k(   17) = (   0.0000000   0.3750000   0.1250000), wk =   0.0156250
        k(   18) = (   0.0000000   0.3750000   0.2500000), wk =   0.0156250
        k(   19) = (   0.0000000   0.3750000   0.3750000), wk =   0.0156250
        k(   20) = (   0.0000000   0.3750000  -0.5000000), wk =   0.0078125
        k(   21) = (   0.0000000  -0.5000000   0.0000000), wk =   0.0039062
        k(   22) = (   0.0000000  -0.5000000   0.1250000), wk =   0.0078125
        k(   23) = (   0.0000000  -0.5000000   0.2500000), wk =   0.0078125
        k(   24) = (   0.0000000  -0.5000000   0.3750000), wk =   0.0078125
        k(   25) = (   0.0000000  -0.5000000  -0.5000000), wk =   0.0039062
        k(   26) = (   0.1250000   0.0000000   0.0000000), wk =   0.0078125
        k(   27) = (   0.1250000   0.0000000   0.1250000), wk =   0.0156250
        k(   28) = (   0.1250000   0.0000000   0.2500000), wk =   0.0156250
        k(   29) = (   0.1250000   0.0000000   0.3750000), wk =   0.0156250
        k(   30) = (   0.1250000   0.0000000  -0.5000000), wk =   0.0078125
        k(   31) = (   0.1250000   0.1250000   0.0000000), wk =   0.0156250
        k(   32) = (   0.1250000   0.1250000   0.1250000), wk =   0.0312500
        k(   33) = (   0.1250000   0.1250000   0.2500000), wk =   0.0312500
        k(   34) = (   0.1250000   0.1250000   0.3750000), wk =   0.0312500
        k(   35) = (   0.1250000   0.1250000  -0.5000000), wk =   0.0156250
        k(   36) = (   0.1250000   0.2500000   0.0000000), wk =   0.0156250
        k(   37) = (   0.1250000   0.2500000   0.1250000), wk =   0.0312500
        k(   38) = (   0.1250000   0.2500000   0.2500000), wk =   0.0312500
        k(   39) = (   0.1250000   0.2500000   0.3750000), wk =   0.0312500
        k(   40) = (   0.1250000   0.2500000  -0.5000000), wk =   0.0156250
        k(   41) = (   0.1250000   0.3750000   0.0000000), wk =   0.0156250
        k(   42) = (   0.1250000   0.3750000   0.1250000), wk =   0.0312500
        k(   43) = (   0.1250000   0.3750000   0.2500000), wk =   0.0312500
        k(   44) = (   0.1250000   0.3750000   0.3750000), wk =   0.0312500
        k(   45) = (   0.1250000   0.3750000  -0.5000000), wk =   0.0156250
        k(   46) = (   0.1250000  -0.5000000   0.0000000), wk =   0.0078125
        k(   47) = (   0.1250000  -0.5000000   0.1250000), wk =   0.0156250
        k(   48) = (   0.1250000  -0.5000000   0.2500000), wk =   0.0156250
        k(   49) = (   0.1250000  -0.5000000   0.3750000), wk =   0.0156250
        k(   50) = (   0.1250000  -0.5000000  -0.5000000), wk =   0.0078125
        k(   51) = (   0.2500000   0.0000000   0.0000000), wk =   0.0078125
        k(   52) = (   0.2500000   0.0000000   0.1250000), wk =   0.0156250
        k(   53) = (   0.2500000   0.0000000   0.2500000), wk =   0.0156250
        k(   54) = (   0.2500000   0.0000000   0.3750000), wk =   0.0156250
        k(   55) = (   0.2500000   0.0000000  -0.5000000), wk =   0.0078125
        k(   56) = (   0.2500000   0.1250000   0.0000000), wk =   0.0156250
        k(   57) = (   0.2500000   0.1250000   0.1250000), wk =   0.0312500
        k(   58) = (   0.2500000   0.1250000   0.2500000), wk =   0.0312500
        k(   59) = (   0.2500000   0.1250000   0.3750000), wk =   0.0312500
        k(   60) = (   0.2500000   0.1250000  -0.5000000), wk =   0.0156250
        k(   61) = (   0.2500000   0.2500000   0.0000000), wk =   0.0156250
        k(   62) = (   0.2500000   0.2500000   0.1250000), wk =   0.0312500
        k(   63) = (   0.2500000   0.2500000   0.2500000), wk =   0.0312500
        k(   64) = (   0.2500000   0.2500000   0.3750000), wk =   0.0312500
        k(   65) = (   0.2500000   0.2500000  -0.5000000), wk =   0.0156250
        k(   66) = (   0.2500000   0.3750000   0.0000000), wk =   0.0156250
        k(   67) = (   0.2500000   0.3750000   0.1250000), wk =   0.0312500
        k(   68) = (   0.2500000   0.3750000   0.2500000), wk =   0.0312500
        k(   69) = (   0.2500000   0.3750000   0.3750000), wk =   0.0312500
        k(   70) = (   0.2500000   0.3750000  -0.5000000), wk =   0.0156250
        k(   71) = (   0.2500000  -0.5000000   0.0000000), wk =   0.0078125
        k(   72) = (   0.2500000  -0.5000000   0.1250000), wk =   0.0156250
        k(   73) = (   0.2500000  -0.5000000   0.2500000), wk =   0.0156250
        k(   74) = (   0.2500000  -0.5000000   0.3750000), wk =   0.0156250
        k(   75) = (   0.2500000  -0.5000000  -0.5000000), wk =   0.0078125
        k(   76) = (   0.3750000   0.0000000   0.0000000), wk =   0.0078125
        k(   77) = (   0.3750000   0.0000000   0.1250000), wk =   0.0156250
        k(   78) = (   0.3750000   0.0000000   0.2500000), wk =   0.0156250
        k(   79) = (   0.3750000   0.0000000   0.3750000), wk =   0.0156250
        k(   80) = (   0.3750000   0.0000000  -0.5000000), wk =   0.0078125
        k(   81) = (   0.3750000   0.1250000   0.0000000), wk =   0.0156250
        k(   82) = (   0.3750000   0.1250000   0.1250000), wk =   0.0312500
        k(   83) = (   0.3750000   0.1250000   0.2500000), wk =   0.0312500
        k(   84) = (   0.3750000   0.1250000   0.3750000), wk =   0.0312500
        k(   85) = (   0.3750000   0.1250000  -0.5000000), wk =   0.0156250
        k(   86) = (   0.3750000   0.2500000   0.0000000), wk =   0.0156250
        k(   87) = (   0.3750000   0.2500000   0.1250000), wk =   0.0312500
        k(   88) = (   0.3750000   0.2500000   0.2500000), wk =   0.0312500
        k(   89) = (   0.3750000   0.2500000   0.3750000), wk =   0.0312500
        k(   90) = (   0.3750000   0.2500000  -0.5000000), wk =   0.0156250
        k(   91) = (   0.3750000   0.3750000   0.0000000), wk =   0.0156250
        k(   92) = (   0.3750000   0.3750000   0.1250000), wk =   0.0312500
        k(   93) = (   0.3750000   0.3750000   0.2500000), wk =   0.0312500
        k(   94) = (   0.3750000   0.3750000   0.3750000), wk =   0.0312500
        k(   95) = (   0.3750000   0.3750000  -0.5000000), wk =   0.0156250
        k(   96) = (   0.3750000  -0.5000000   0.0000000), wk =   0.0078125
        k(   97) = (   0.3750000  -0.5000000   0.1250000), wk =   0.0156250
        k(   98) = (   0.3750000  -0.5000000   0.2500000), wk =   0.0156250
        k(   99) = (   0.3750000  -0.5000000   0.3750000), wk =   0.0156250
        k(  100) = (   0.3750000  -0.5000000  -0.5000000), wk =   0.0078125
        k(  101) = (  -0.5000000   0.0000000   0.0000000), wk =   0.0039062
        k(  102) = (  -0.5000000   0.0000000   0.1250000), wk =   0.0078125
        k(  103) = (  -0.5000000   0.0000000   0.2500000), wk =   0.0078125
        k(  104) = (  -0.5000000   0.0000000   0.3750000), wk =   0.0078125
        k(  105) = (  -0.5000000   0.0000000  -0.5000000), wk =   0.0039062
        k(  106) = (  -0.5000000   0.1250000   0.0000000), wk =   0.0078125
        k(  107) = (  -0.5000000   0.1250000   0.1250000), wk =   0.0156250
        k(  108) = (  -0.5000000   0.1250000   0.2500000), wk =   0.0156250
        k(  109) = (  -0.5000000   0.1250000   0.3750000), wk =   0.0156250
        k(  110) = (  -0.5000000   0.1250000  -0.5000000), wk =   0.0078125
        k(  111) = (  -0.5000000   0.2500000   0.0000000), wk =   0.0078125
        k(  112) = (  -0.5000000   0.2500000   0.1250000), wk =   0.0156250
        k(  113) = (  -0.5000000   0.2500000   0.2500000), wk =   0.0156250
        k(  114) = (  -0.5000000   0.2500000   0.3750000), wk =   0.0156250
        k(  115) = (  -0.5000000   0.2500000  -0.5000000), wk =   0.0078125
        k(  116) = (  -0.5000000   0.3750000   0.0000000), wk =   0.0078125
        k(  117) = (  -0.5000000   0.3750000   0.1250000), wk =   0.0156250
        k(  118) = (  -0.5000000   0.3750000   0.2500000), wk =   0.0156250
        k(  119) = (  -0.5000000   0.3750000   0.3750000), wk =   0.0156250
        k(  120) = (  -0.5000000   0.3750000  -0.5000000), wk =   0.0078125
        k(  121) = (  -0.5000000  -0.5000000   0.0000000), wk =   0.0039062
        k(  122) = (  -0.5000000  -0.5000000   0.1250000), wk =   0.0078125
        k(  123) = (  -0.5000000  -0.5000000   0.2500000), wk =   0.0078125
        k(  124) = (  -0.5000000  -0.5000000   0.3750000), wk =   0.0078125
        k(  125) = (  -0.5000000  -0.5000000  -0.5000000), wk =   0.0039062

     Dense  grid:   587931 G-vectors     FFT dimensions: (  72,  75, 225)

     Smooth grid:   207777 G-vectors     FFT dimensions: (  54,  54, 160)

     Dynamical RAM for                 wfc:       5.95 MB

     Dynamical RAM for     wfc (w. buffer):     749.24 MB

     Dynamical RAM for             U proj.:       0.99 MB

     Dynamical RAM for  U proj. (w. buff.):     124.87 MB

     Dynamical RAM for           str. fact:      11.21 MB

     Dynamical RAM for           local pot:       0.00 MB

     Dynamical RAM for          nlocal pot:      15.66 MB

     Dynamical RAM for                qrad:      16.57 MB

     Dynamical RAM for          rho,v,vnew:      13.77 MB

     Dynamical RAM for               rhoin:       4.59 MB

     Dynamical RAM for            rho*nmix:      35.89 MB

     Dynamical RAM for           G-vectors:       8.81 MB

     Dynamical RAM for          h,s,v(r/c):       0.66 MB

     Dynamical RAM for          <psi|beta>:       0.14 MB

     Dynamical RAM for                 psi:      11.89 MB

     Dynamical RAM for                hpsi:      11.89 MB

     Dynamical RAM for                spsi:      11.89 MB

     Dynamical RAM for      wfcinit/wfcrot:      14.79 MB

     Dynamical RAM for           addusdens:     473.23 MB

     Dynamical RAM for          addusforce:     496.81 MB

     Estimated static dynamical RAM per process >     969.92 MB

     Estimated max dynamical RAM per process >       1.47 GB

     Estimated total dynamical RAM >       5.87 GB

     Initial potential from superposition of free atoms

     starting charge      99.9608, renormalised to     100.0000

     negative rho (up, down):  4.337E-02 0.000E+00

     HUBBARD ENERGY =    0.3491  (Ry)

     STARTING HUBBARD OCCUPATIONS:

     =================== HUBBARD OCCUPATIONS ===================
     ------------------------ ATOM    5 ------------------------
     Tr[ns(  5)] =   9.50000
     eigenvalues:
       0.950  0.950  0.950  0.950  0.950
     eigenvectors (columns):
       1.000  0.000  0.000  0.000  0.000
       0.000  1.000  0.000  0.000  0.000
       0.000  0.000  1.000  0.000  0.000
       0.000  0.000  0.000  1.000  0.000
       0.000  0.000  0.000  0.000  1.000
     occupation matrix ns (before diag.):
       0.950  0.000  0.000  0.000  0.000
       0.000  0.950  0.000  0.000  0.000
       0.000  0.000  0.950  0.000  0.000
       0.000  0.000  0.000  0.950  0.000
       0.000  0.000  0.000  0.000  0.950
     ------------------------ ATOM    6 ------------------------
     Tr[ns(  6)] =   9.50000
     eigenvalues:
       0.950  0.950  0.950  0.950  0.950
     eigenvectors (columns):
       1.000  0.000  0.000  0.000  0.000
       0.000  1.000  0.000  0.000  0.000
       0.000  0.000  1.000  0.000  0.000
       0.000  0.000  0.000  1.000  0.000
       0.000  0.000  0.000  0.000  1.000
     occupation matrix ns (before diag.):
       0.950  0.000  0.000  0.000  0.000
       0.000  0.950  0.000  0.000  0.000
       0.000  0.000  0.950  0.000  0.000
       0.000  0.000  0.000  0.950  0.000
       0.000  0.000  0.000  0.000  0.950

     Number of occupied Hubbard levels =   19.0000

     Atomic wfc used for Hubbard projectors are orthogonalized

     Starting wfcs are   74 randomized atomic wfcs
     Checking if some PAW data can be deallocated... 
       PAW data deallocated on    3 nodes for type:  2
       PAW data deallocated on    3 nodes for type:  3
       PAW data deallocated on    3 nodes for type:  4
       PAW data deallocated on    2 nodes for type:  5

     total cpu time spent up to now is       27.7 secs

     Self-consistent Calculation

     iteration #  1     ecut=   120.00 Ry     beta= 0.10
     Davidson diagonalization with overlap

---- Real-time Memory Report at c_bands before calling an iterative solver
          1117 MiB given to the printing process from OS
             0 MiB allocation reported by mallinfo(arena+hblkhd)
          4954 MiB available memory on the node where the printing process lives
------------------
     ethr =  1.00E-02,  avg # of iterations =  7.4

     =================== HUBBARD OCCUPATIONS ===================
     ------------------------ ATOM    5 ------------------------
     Tr[ns(  5)] =   9.92164
     eigenvalues:
       0.980  0.994  0.994  0.996  0.996
     eigenvectors (columns):
       0.996  0.000  0.000 -0.085 -0.000
       0.000 -0.000 -1.000 -0.000  0.000
       0.000 -1.000  0.000 -0.000  0.000
      -0.085  0.000  0.000 -0.996 -0.000
      -0.000  0.000  0.000 -0.000  1.000
     occupation matrix ns (before diag.):
       0.980 -0.000 -0.000  0.001  0.000
      -0.000  0.994 -0.000  0.000  0.000
      -0.000 -0.000  0.994  0.000  0.000
       0.001  0.000  0.000  0.996 -0.000
       0.000  0.000  0.000 -0.000  0.996
     ------------------------ ATOM    6 ------------------------
     Tr[ns(  6)] =   9.92164
     eigenvalues:
       0.980  0.994  0.994  0.996  0.996
     eigenvectors (columns):
       0.996  0.000  0.000 -0.085 -0.000
       0.000 -0.000 -1.000 -0.000  0.000
       0.000 -1.000  0.000 -0.000  0.000
      -0.085  0.000  0.000 -0.996 -0.000
      -0.000  0.000  0.000 -0.000  1.000
     occupation matrix ns (before diag.):
       0.980 -0.000 -0.000  0.001  0.000
      -0.000  0.994 -0.000  0.000  0.000
      -0.000 -0.000  0.994  0.000  0.000
       0.001  0.000  0.000  0.996 -0.000
       0.000  0.000  0.000 -0.000  0.996

     Number of occupied Hubbard levels =   19.8433

     negative rho (up, down):  4.347E-02 0.000E+00

     HUBBARD ENERGY =    0.0569  (Ry)

     total cpu time spent up to now is       95.5 secs

     total energy              =   -1848.55528341 Ry
     estimated scf accuracy    <      10.48027391 Ry

     iteration #  2     ecut=   120.00 Ry     beta= 0.10
     Davidson diagonalization with overlap

---- Real-time Memory Report at c_bands before calling an iterative solver
          1588 MiB given to the printing process from OS
             0 MiB allocation reported by mallinfo(arena+hblkhd)
          4814 MiB available memory on the node where the printing process lives
------------------
     ethr =  1.00E-02,  avg # of iterations =  2.1

     =================== HUBBARD OCCUPATIONS ===================
     ------------------------ ATOM    5 ------------------------
     Tr[ns(  5)] =   9.30585
     eigenvalues:
       0.726  0.962  0.984  0.986  0.995
     eigenvectors (columns):
      -0.029  1.000 -0.000 -0.000  0.000
      -0.000  0.000  1.000 -0.000  0.000
      -0.000  0.000  0.000  1.000  0.000
       1.000  0.029  0.000  0.000 -0.000
       0.000 -0.000 -0.000 -0.000  1.000
     occupation matrix ns (before diag.):
       0.962 -0.000 -0.000  0.007  0.000
      -0.000  0.984 -0.000  0.000  0.000
      -0.000 -0.000  0.986  0.000  0.000
       0.007  0.000  0.000  0.727 -0.000
       0.000  0.000  0.000 -0.000  0.995
     ------------------------ ATOM    6 ------------------------
     Tr[ns(  6)] =   9.30585
     eigenvalues:
       0.726  0.962  0.984  0.986  0.995
     eigenvectors (columns):
      -0.029  1.000 -0.000 -0.000  0.000
      -0.000  0.000  1.000 -0.000  0.000
      -0.000  0.000  0.000  1.000  0.000
       1.000  0.029  0.000  0.000 -0.000
       0.000 -0.000 -0.000 -0.000  1.000
     occupation matrix ns (before diag.):
       0.962 -0.000 -0.000  0.007  0.000
      -0.000  0.984 -0.000  0.000  0.000
      -0.000 -0.000  0.986  0.000  0.000
       0.007  0.000  0.000  0.727 -0.000
       0.000  0.000  0.000 -0.000  0.995

     Number of occupied Hubbard levels =   18.6117

     negative rho (up, down):  4.355E-02 0.000E+00

     HUBBARD ENERGY =    0.0889  (Ry)

     total cpu time spent up to now is      148.1 secs

     total energy              =   -1849.65882750 Ry
     estimated scf accuracy    <       2.81942411 Ry

     iteration #  3     ecut=   120.00 Ry     beta= 0.10
     Davidson diagonalization with overlap

---- Real-time Memory Report at c_bands before calling an iterative solver
          1600 MiB given to the printing process from OS
             0 MiB allocation reported by mallinfo(arena+hblkhd)
          4808 MiB available memory on the node where the printing process lives
------------------
     ethr =  2.82E-03,  avg # of iterations =  2.0

     =================== HUBBARD OCCUPATIONS ===================
     ------------------------ ATOM    5 ------------------------
     Tr[ns(  5)] =   9.53378
     eigenvalues:
       0.816  0.975  0.990  0.991  0.996
     eigenvectors (columns):
      -0.025  1.000 -0.000 -0.000  0.000
      -0.000  0.000  1.000 -0.000  0.000
      -0.000  0.000  0.000  1.000  0.000
       1.000  0.025  0.000  0.000 -0.000
       0.000 -0.000 -0.000 -0.000  1.000
     occupation matrix ns (before diag.):
       0.975 -0.000 -0.000  0.004  0.000
      -0.000  0.990 -0.000  0.000  0.000
      -0.000 -0.000  0.991  0.000  0.000
       0.004  0.000  0.000  0.816 -0.000
       0.000  0.000  0.000 -0.000  0.996
     ------------------------ ATOM    6 ------------------------
     Tr[ns(  6)] =   9.53378
     eigenvalues:
       0.816  0.975  0.990  0.991  0.996
     eigenvectors (columns):
      -0.025  1.000 -0.000 -0.000  0.000
      -0.000  0.000  1.000 -0.000  0.000
      -0.000  0.000  0.000  1.000  0.000
       1.000  0.025  0.000  0.000 -0.000
       0.000 -0.000 -0.000 -0.000  1.000
     occupation matrix ns (before diag.):
       0.975 -0.000 -0.000  0.004  0.000
      -0.000  0.990 -0.000  0.000  0.000
      -0.000 -0.000  0.991  0.000  0.000
       0.004  0.000  0.000  0.816 -0.000
       0.000  0.000  0.000 -0.000  0.996

     Number of occupied Hubbard levels =   19.0676

     negative rho (up, down):  4.378E-02 0.000E+00

     HUBBARD ENERGY =    0.1272  (Ry)

     total cpu time spent up to now is      201.0 secs

     total energy              =   -1849.56053269 Ry
     estimated scf accuracy    <       0.94104577 Ry

     iteration #  4     ecut=   120.00 Ry     beta= 0.10
     Davidson diagonalization with overlap

---- Real-time Memory Report at c_bands before calling an iterative solver
          1602 MiB given to the printing process from OS
             0 MiB allocation reported by mallinfo(arena+hblkhd)
          4795 MiB available memory on the node where the printing process lives
------------------
     ethr =  9.41E-04,  avg # of iterations =  2.4

     =================== HUBBARD OCCUPATIONS ===================
     ------------------------ ATOM    5 ------------------------
     Tr[ns(  5)] =   9.58658
     eigenvalues:
       0.835  0.978  0.991  0.992  0.997
     eigenvectors (columns):
      -0.024  1.000 -0.000 -0.000  0.000
      -0.000  0.000  1.000 -0.000  0.000
      -0.000  0.000  0.000  1.000  0.000
       1.000  0.024  0.000  0.000 -0.000
       0.000 -0.000 -0.000 -0.000  1.000
     occupation matrix ns (before diag.):
       0.978 -0.000 -0.000  0.003  0.000
      -0.000  0.991 -0.000  0.000  0.000
      -0.000 -0.000  0.992  0.000  0.000
       0.003  0.000  0.000  0.835 -0.000
       0.000  0.000  0.000 -0.000  0.997
     ------------------------ ATOM    6 ------------------------
     Tr[ns(  6)] =   9.58658
     eigenvalues:
       0.835  0.978  0.991  0.992  0.997
     eigenvectors (columns):
      -0.024  1.000 -0.000 -0.000  0.000
      -0.000  0.000  1.000 -0.000  0.000
      -0.000  0.000  0.000  1.000  0.000
       1.000  0.024  0.000  0.000 -0.000
       0.000 -0.000 -0.000 -0.000  1.000
     occupation matrix ns (before diag.):
       0.978 -0.000 -0.000  0.003  0.000
      -0.000  0.991 -0.000  0.000  0.000
      -0.000 -0.000  0.992  0.000  0.000
       0.003  0.000  0.000  0.835 -0.000
       0.000  0.000  0.000 -0.000  0.997

     Number of occupied Hubbard levels =   19.1732

     negative rho (up, down):  4.405E-02 0.000E+00

     HUBBARD ENERGY =    0.1609  (Ry)

     total cpu time spent up to now is      255.8 secs

     total energy              =   -1849.57590003 Ry
     estimated scf accuracy    <       0.22072652 Ry

     iteration #  5     ecut=   120.00 Ry     beta= 0.10
     Davidson diagonalization with overlap

---- Real-time Memory Report at c_bands before calling an iterative solver
          1605 MiB given to the printing process from OS
             0 MiB allocation reported by mallinfo(arena+hblkhd)
          4794 MiB available memory on the node where the printing process lives
------------------
     c_bands:  4 eigenvalues not converged
     ethr =  2.21E-04,  avg # of iterations =  7.1
     Minimization algorithm failed to find Fermi energy: reverting to bisection
     Possible cause: smearing is larger than the electronic band-gap.

     =================== HUBBARD OCCUPATIONS ===================
     ------------------------ ATOM    5 ------------------------
     Tr[ns(  5)] =   9.63096
     eigenvalues:
       0.854  0.979  0.993  0.993  0.997
     eigenvectors (columns):
      -0.024  1.000 -0.000 -0.000  0.000
      -0.000  0.000  1.000 -0.000  0.000
      -0.000  0.000  0.000  1.000  0.000
       1.000  0.024  0.000  0.000 -0.000
       0.000 -0.000 -0.000 -0.000  1.000
     occupation matrix ns (before diag.):
       0.979 -0.000 -0.000  0.003  0.000
      -0.000  0.993 -0.000  0.000  0.000
      -0.000 -0.000  0.993  0.000  0.000
       0.003  0.000  0.000  0.854 -0.000
       0.000  0.000  0.000 -0.000  0.997
     ------------------------ ATOM    6 ------------------------
     Tr[ns(  6)] =   9.63096
     eigenvalues:
       0.854  0.979  0.993  0.993  0.997
     eigenvectors (columns):
      -0.024  1.000 -0.000 -0.000  0.000
      -0.000  0.000  1.000 -0.000  0.000
      -0.000  0.000  0.000  1.000  0.000
       1.000  0.024  0.000  0.000 -0.000
       0.000 -0.000 -0.000 -0.000  1.000
     occupation matrix ns (before diag.):
       0.979 -0.000 -0.000  0.003  0.000
      -0.000  0.993 -0.000  0.000  0.000
      -0.000 -0.000  0.993  0.000  0.000
       0.003  0.000  0.000  0.854 -0.000
       0.000  0.000  0.000 -0.000  0.997

     Number of occupied Hubbard levels =   19.2619

     negative rho (up, down):  4.424E-02 0.000E+00

     HUBBARD ENERGY =    0.1763  (Ry)

     total cpu time spent up to now is      325.6 secs

     total energy              =   -1849.59159245 Ry
     estimated scf accuracy    <       0.10236877 Ry

     iteration #  6     ecut=   120.00 Ry     beta= 0.10
     Davidson diagonalization with overlap

---- Real-time Memory Report at c_bands before calling an iterative solver
          1607 MiB given to the printing process from OS
             0 MiB allocation reported by mallinfo(arena+hblkhd)
          4784 MiB available memory on the node where the printing process lives
------------------
     ethr =  1.02E-04,  avg # of iterations =  2.7

     =================== HUBBARD OCCUPATIONS ===================
     ------------------------ ATOM    5 ------------------------
     Tr[ns(  5)] =   9.58076
     eigenvalues:
       0.832  0.977  0.992  0.993  0.997
     eigenvectors (columns):
      -0.024  1.000 -0.000 -0.000  0.000
      -0.000  0.000  1.000 -0.000  0.000
      -0.000  0.000  0.000  1.000  0.000
       1.000  0.024  0.000  0.000 -0.000
       0.000 -0.000 -0.000 -0.000  1.000
     occupation matrix ns (before diag.):
       0.977 -0.000 -0.000  0.003  0.000
      -0.000  0.992 -0.000  0.000  0.000
      -0.000 -0.000  0.993  0.000  0.000
       0.003  0.000  0.000  0.832 -0.000
       0.000  0.000  0.000 -0.000  0.997
     ------------------------ ATOM    6 ------------------------
     Tr[ns(  6)] =   9.58076
     eigenvalues:
       0.832  0.977  0.992  0.993  0.997
     eigenvectors (columns):
      -0.024  1.000 -0.000 -0.000  0.000
      -0.000  0.000  1.000 -0.000  0.000
      -0.000  0.000  0.000  1.000  0.000
       1.000  0.024  0.000  0.000 -0.000
       0.000 -0.000 -0.000 -0.000  1.000
     occupation matrix ns (before diag.):
       0.977 -0.000 -0.000  0.003  0.000
      -0.000  0.992 -0.000  0.000  0.000
      -0.000 -0.000  0.993  0.000  0.000
       0.003  0.000  0.000  0.832 -0.000
       0.000  0.000  0.000 -0.000  0.997

     Number of occupied Hubbard levels =   19.1615

     negative rho (up, down):  4.464E-02 0.000E+00

     HUBBARD ENERGY =    0.2157  (Ry)

     total cpu time spent up to now is      382.2 secs

     total energy              =   -1849.61420286 Ry
     estimated scf accuracy    <       0.07500935 Ry

     iteration #  7     ecut=   120.00 Ry     beta= 0.10
     Davidson diagonalization with overlap

---- Real-time Memory Report at c_bands before calling an iterative solver
          1609 MiB given to the printing process from OS
             0 MiB allocation reported by mallinfo(arena+hblkhd)
          4779 MiB available memory on the node where the printing process lives
------------------
     ethr =  7.50E-05,  avg # of iterations =  1.4

     =================== HUBBARD OCCUPATIONS ===================
     ------------------------ ATOM    5 ------------------------
     Tr[ns(  5)] =   9.56213
     eigenvalues:
       0.823  0.977  0.992  0.993  0.997
     eigenvectors (columns):
      -0.024  1.000 -0.000 -0.000  0.000
      -0.000  0.000  1.000 -0.000  0.000
      -0.000  0.000  0.000  1.000  0.000
       1.000  0.024  0.000  0.000 -0.000
       0.000 -0.000 -0.000 -0.000  1.000
     occupation matrix ns (before diag.):
       0.977 -0.000 -0.000  0.004  0.000
      -0.000  0.992 -0.000  0.000  0.000
      -0.000 -0.000  0.993  0.000  0.000
       0.004  0.000  0.000  0.823 -0.000
       0.000  0.000  0.000 -0.000  0.997
     ------------------------ ATOM    6 ------------------------
     Tr[ns(  6)] =   9.56213
     eigenvalues:
       0.823  0.977  0.992  0.993  0.997
     eigenvectors (columns):
      -0.024  1.000 -0.000 -0.000  0.000
      -0.000  0.000  1.000 -0.000  0.000
      -0.000  0.000  0.000  1.000  0.000
       1.000  0.024  0.000  0.000 -0.000
       0.000 -0.000 -0.000 -0.000  1.000
     occupation matrix ns (before diag.):
       0.977 -0.000 -0.000  0.004  0.000
      -0.000  0.992 -0.000  0.000  0.000
      -0.000 -0.000  0.993  0.000  0.000
       0.004  0.000  0.000  0.823 -0.000
       0.000  0.000  0.000 -0.000  0.997

     Number of occupied Hubbard levels =   19.1243

     negative rho (up, down):  4.491E-02 0.000E+00

     HUBBARD ENERGY =    0.2467  (Ry)

     total cpu time spent up to now is      433.0 secs

     total energy              =   -1849.60628896 Ry
     estimated scf accuracy    <       0.04233026 Ry

     iteration #  8     ecut=   120.00 Ry     beta= 0.10
     Davidson diagonalization with overlap

---- Real-time Memory Report at c_bands before calling an iterative solver
          1611 MiB given to the printing process from OS
             0 MiB allocation reported by mallinfo(arena+hblkhd)
          4768 MiB available memory on the node where the printing process lives
------------------
     c_bands:  1 eigenvalues not converged
     ethr =  4.23E-05,  avg # of iterations =  5.2

     =================== HUBBARD OCCUPATIONS ===================
     ------------------------ ATOM    5 ------------------------
     Tr[ns(  5)] =   9.59601
     eigenvalues:
       0.836  0.978  0.993  0.994  0.997
     eigenvectors (columns):
      -0.023  1.000 -0.000 -0.000  0.000
      -0.000  0.000  1.000 -0.000  0.000
      -0.000  0.000  0.000  1.000  0.000
       1.000  0.023  0.000  0.000 -0.000
       0.000 -0.000 -0.000 -0.000  1.000
     occupation matrix ns (before diag.):
       0.978 -0.000 -0.000  0.003  0.000
      -0.000  0.993 -0.000  0.000  0.000
      -0.000 -0.000  0.994  0.000  0.000
       0.003  0.000  0.000  0.836 -0.000
       0.000  0.000  0.000 -0.000  0.997
     ------------------------ ATOM    6 ------------------------
     Tr[ns(  6)] =   9.59601
     eigenvalues:
       0.836  0.978  0.993  0.994  0.997
     eigenvectors (columns):
      -0.023  1.000 -0.000 -0.000  0.000
      -0.000  0.000  1.000 -0.000  0.000
      -0.000  0.000  0.000  1.000  0.000
       1.000  0.023  0.000  0.000 -0.000
       0.000 -0.000 -0.000 -0.000  1.000
     occupation matrix ns (before diag.):
       0.978 -0.000 -0.000  0.003  0.000
      -0.000  0.993 -0.000  0.000  0.000
      -0.000 -0.000  0.994  0.000  0.000
       0.003  0.000  0.000  0.836 -0.000
       0.000  0.000  0.000 -0.000  0.997

     Number of occupied Hubbard levels =   19.1920

     negative rho (up, down):  4.490E-02 0.000E+00

     HUBBARD ENERGY =    0.2501  (Ry)

     total cpu time spent up to now is      497.8 secs

     total energy              =   -1849.60413723 Ry
     estimated scf accuracy    <       0.04096681 Ry

     iteration #  9     ecut=   120.00 Ry     beta= 0.10
     Davidson diagonalization with overlap

---- Real-time Memory Report at c_bands before calling an iterative solver
          1613 MiB given to the printing process from OS
             0 MiB allocation reported by mallinfo(arena+hblkhd)
          4760 MiB available memory on the node where the printing process lives
------------------
     ethr =  4.10E-05,  avg # of iterations =  2.1

     =================== HUBBARD OCCUPATIONS ===================
     ------------------------ ATOM    5 ------------------------
     Tr[ns(  5)] =   9.55715
     eigenvalues:
       0.817  0.978  0.993  0.993  0.997
     eigenvectors (columns):
      -0.023  1.000 -0.000 -0.000  0.000
      -0.000  0.000  1.000 -0.000  0.000
      -0.000  0.000  0.000  1.000  0.000
       1.000  0.023  0.000  0.000 -0.000
       0.000 -0.000 -0.000 -0.000  1.000
     occupation matrix ns (before diag.):
       0.978 -0.000 -0.000  0.004  0.000
      -0.000  0.993 -0.000  0.000  0.000
      -0.000 -0.000  0.993  0.000  0.000
       0.004  0.000  0.000  0.817 -0.000
       0.000  0.000  0.000 -0.000  0.997
     ------------------------ ATOM    6 ------------------------
     Tr[ns(  6)] =   9.55715
     eigenvalues:
       0.817  0.978  0.993  0.993  0.997
     eigenvectors (columns):
      -0.023  1.000 -0.000 -0.000  0.000
      -0.000  0.000  1.000 -0.000  0.000
      -0.000  0.000  0.000  1.000  0.000
       1.000  0.023  0.000  0.000 -0.000
       0.000 -0.000 -0.000 -0.000  1.000
     occupation matrix ns (before diag.):
       0.978 -0.000 -0.000  0.004  0.000
      -0.000  0.993 -0.000  0.000  0.000
      -0.000 -0.000  0.993  0.000  0.000
       0.004  0.000  0.000  0.817 -0.000
       0.000  0.000  0.000 -0.000  0.997

     Number of occupied Hubbard levels =   19.1143

     negative rho (up, down):  4.489E-02 0.000E+00

     HUBBARD ENERGY =    0.2584  (Ry)

     total cpu time spent up to now is      553.5 secs

     total energy              =   -1849.61378004 Ry
     estimated scf accuracy    <       0.01416820 Ry

     iteration # 10     ecut=   120.00 Ry     beta= 0.10
     Davidson diagonalization with overlap

---- Real-time Memory Report at c_bands before calling an iterative solver
          1615 MiB given to the printing process from OS
             0 MiB allocation reported by mallinfo(arena+hblkhd)
          4750 MiB available memory on the node where the printing process lives
------------------
     ethr =  1.42E-05,  avg # of iterations =  1.7

     =================== HUBBARD OCCUPATIONS ===================
     ------------------------ ATOM    5 ------------------------
     Tr[ns(  5)] =   9.55766
     eigenvalues:
       0.816  0.979  0.993  0.994  0.997
     eigenvectors (columns):
      -0.023  1.000 -0.000 -0.000  0.000
      -0.000  0.000  1.000 -0.000  0.000
      -0.000  0.000  0.000  1.000  0.000
       1.000  0.023  0.000  0.000 -0.000
       0.000 -0.000 -0.000 -0.000  1.000
     occupation matrix ns (before diag.):
       0.979 -0.000 -0.000  0.004  0.000
      -0.000  0.993 -0.000  0.000  0.000
      -0.000 -0.000  0.994  0.000  0.000
       0.004  0.000  0.000  0.816 -0.000
       0.000  0.000  0.000 -0.000  0.997
     ------------------------ ATOM    6 ------------------------
     Tr[ns(  6)] =   9.55766
     eigenvalues:
       0.816  0.979  0.993  0.994  0.997
     eigenvectors (columns):
      -0.023  1.000 -0.000 -0.000  0.000
      -0.000  0.000  1.000 -0.000  0.000
      -0.000  0.000  0.000  1.000  0.000
       1.000  0.023  0.000  0.000 -0.000
       0.000 -0.000 -0.000 -0.000  1.000
     occupation matrix ns (before diag.):
       0.979 -0.000 -0.000  0.004  0.000
      -0.000  0.993 -0.000  0.000  0.000
      -0.000 -0.000  0.994  0.000  0.000
       0.004  0.000  0.000  0.816 -0.000
       0.000  0.000  0.000 -0.000  0.997

     Number of occupied Hubbard levels =   19.1153

     negative rho (up, down):  4.490E-02 0.000E+00

     HUBBARD ENERGY =    0.2670  (Ry)

     total cpu time spent up to now is      604.9 secs

     total energy              =   -1849.61171397 Ry
     estimated scf accuracy    <       0.00902953 Ry

     iteration # 11     ecut=   120.00 Ry     beta= 0.10
     Davidson diagonalization with overlap

---- Real-time Memory Report at c_bands before calling an iterative solver
          1617 MiB given to the printing process from OS
             0 MiB allocation reported by mallinfo(arena+hblkhd)
          4748 MiB available memory on the node where the printing process lives
------------------
     c_bands:  1 eigenvalues not converged
     c_bands:  1 eigenvalues not converged
     c_bands:  1 eigenvalues not converged
     ethr =  9.03E-06,  avg # of iterations =  7.3

     =================== HUBBARD OCCUPATIONS ===================
     ------------------------ ATOM    5 ------------------------
     Tr[ns(  5)] =   9.59912
     eigenvalues:
       0.835  0.979  0.994  0.994  0.997
     eigenvectors (columns):
      -0.023  1.000 -0.000 -0.000  0.000
      -0.000  0.000  1.000 -0.000  0.000
      -0.000  0.000  0.000  1.000  0.000
       1.000  0.023  0.000  0.000 -0.000
       0.000 -0.000 -0.000 -0.000  1.000
     occupation matrix ns (before diag.):
       0.979 -0.000 -0.000  0.003  0.000
      -0.000  0.994 -0.000  0.000  0.000
      -0.000 -0.000  0.994  0.000  0.000
       0.003  0.000  0.000  0.835 -0.000
       0.000  0.000  0.000 -0.000  0.997
     ------------------------ ATOM    6 ------------------------
     Tr[ns(  6)] =   9.59912
     eigenvalues:
       0.835  0.979  0.994  0.994  0.997
     eigenvectors (columns):
      -0.023  1.000 -0.000 -0.000  0.000
      -0.000  0.000  1.000 -0.000  0.000
      -0.000  0.000  0.000  1.000  0.000
       1.000  0.023  0.000  0.000 -0.000
       0.000 -0.000 -0.000 -0.000  1.000
     occupation matrix ns (before diag.):
       0.979 -0.000 -0.000  0.003  0.000
      -0.000  0.994 -0.000  0.000  0.000
      -0.000 -0.000  0.994  0.000  0.000
       0.003  0.000  0.000  0.835 -0.000
       0.000  0.000  0.000 -0.000  0.997

     Number of occupied Hubbard levels =   19.1982

     negative rho (up, down):  4.489E-02 0.000E+00

     HUBBARD ENERGY =    0.2644  (Ry)

     total cpu time spent up to now is      672.1 secs

     total energy              =   -1849.61277864 Ry
     estimated scf accuracy    <       0.03431808 Ry

     iteration # 12     ecut=   120.00 Ry     beta= 0.10
     Davidson diagonalization with overlap

---- Real-time Memory Report at c_bands before calling an iterative solver
          1618 MiB given to the printing process from OS
             0 MiB allocation reported by mallinfo(arena+hblkhd)
          4741 MiB available memory on the node where the printing process lives
------------------
     ethr =  9.03E-06,  avg # of iterations =  1.2

     =================== HUBBARD OCCUPATIONS ===================
     ------------------------ ATOM    5 ------------------------
     Tr[ns(  5)] =   9.57338
     eigenvalues:
       0.823  0.979  0.993  0.994  0.997
     eigenvectors (columns):
      -0.023  1.000 -0.000 -0.000  0.000
      -0.000  0.000  1.000 -0.000  0.000
      -0.000  0.000  0.000  1.000  0.000
       1.000  0.023  0.000  0.000 -0.000
       0.000 -0.000 -0.000 -0.000  1.000
     occupation matrix ns (before diag.):
       0.979 -0.000 -0.000  0.004  0.000
      -0.000  0.993 -0.000  0.000  0.000
      -0.000 -0.000  0.994  0.000  0.000
       0.004  0.000  0.000  0.823 -0.000
       0.000  0.000  0.000 -0.000  0.997
     ------------------------ ATOM    6 ------------------------
     Tr[ns(  6)] =   9.57338
     eigenvalues:
       0.823  0.979  0.993  0.994  0.997
     eigenvectors (columns):
      -0.023  1.000 -0.000 -0.000  0.000
      -0.000  0.000  1.000 -0.000  0.000
      -0.000  0.000  0.000  1.000  0.000
       1.000  0.023  0.000  0.000 -0.000
       0.000 -0.000 -0.000 -0.000  1.000
     occupation matrix ns (before diag.):
       0.979 -0.000 -0.000  0.004  0.000
      -0.000  0.993 -0.000  0.000  0.000
      -0.000 -0.000  0.994  0.000  0.000
       0.004  0.000  0.000  0.823 -0.000
       0.000  0.000  0.000 -0.000  0.997

     Number of occupied Hubbard levels =   19.1468

     negative rho (up, down):  4.493E-02 0.000E+00

     HUBBARD ENERGY =    0.2608  (Ry)

     total cpu time spent up to now is      721.3 secs

     total energy              =   -1849.61373026 Ry
     estimated scf accuracy    <       0.00288554 Ry

     iteration # 13     ecut=   120.00 Ry     beta= 0.10
     Davidson diagonalization with overlap

---- Real-time Memory Report at c_bands before calling an iterative solver
          1618 MiB given to the printing process from OS
             0 MiB allocation reported by mallinfo(arena+hblkhd)
          4741 MiB available memory on the node where the printing process lives
------------------
     ethr =  2.89E-06,  avg # of iterations =  2.7

     =================== HUBBARD OCCUPATIONS ===================
     ------------------------ ATOM    5 ------------------------
     Tr[ns(  5)] =   9.56831
     eigenvalues:
       0.821  0.979  0.993  0.994  0.997
     eigenvectors (columns):
      -0.023  1.000 -0.000 -0.000  0.000
      -0.000  0.000  1.000 -0.000  0.000
      -0.000  0.000  0.000  1.000  0.000
       1.000  0.023  0.000  0.000 -0.000
       0.000 -0.000 -0.000 -0.000  1.000
     occupation matrix ns (before diag.):
       0.979 -0.000 -0.000  0.004  0.000
      -0.000  0.993 -0.000  0.000  0.000
      -0.000 -0.000  0.994  0.000  0.000
       0.004  0.000  0.000  0.821 -0.000
       0.000  0.000  0.000 -0.000  0.997
     ------------------------ ATOM    6 ------------------------
     Tr[ns(  6)] =   9.56831
     eigenvalues:
       0.821  0.979  0.993  0.994  0.997
     eigenvectors (columns):
      -0.023  1.000 -0.000 -0.000  0.000
      -0.000  0.000  1.000 -0.000  0.000
      -0.000  0.000  0.000  1.000  0.000
       1.000  0.023  0.000  0.000 -0.000
       0.000 -0.000 -0.000 -0.000  1.000
     occupation matrix ns (before diag.):
       0.979 -0.000 -0.000  0.004  0.000
      -0.000  0.993 -0.000  0.000  0.000
      -0.000 -0.000  0.994  0.000  0.000
       0.004  0.000  0.000  0.821 -0.000
       0.000  0.000  0.000 -0.000  0.997

     Number of occupied Hubbard levels =   19.1366

     negative rho (up, down):  4.489E-02 0.000E+00

     HUBBARD ENERGY =    0.2698  (Ry)

     total cpu time spent up to now is      776.6 secs

     total energy              =   -1849.61390185 Ry
     estimated scf accuracy    <       0.00420155 Ry

     iteration # 14     ecut=   120.00 Ry     beta= 0.10
     Davidson diagonalization with overlap

---- Real-time Memory Report at c_bands before calling an iterative solver
          1618 MiB given to the printing process from OS
             0 MiB allocation reported by mallinfo(arena+hblkhd)
          4738 MiB available memory on the node where the printing process lives
------------------
     ethr =  2.89E-06,  avg # of iterations =  2.5
     Minimization algorithm failed to find Fermi energy: reverting to bisection
     Possible cause: smearing is larger than the electronic band-gap.

     =================== HUBBARD OCCUPATIONS ===================
     ------------------------ ATOM    5 ------------------------
     Tr[ns(  5)] =   9.59008
     eigenvalues:
       0.831  0.979  0.994  0.994  0.997
     eigenvectors (columns):
      -0.022  1.000 -0.000 -0.000  0.000
      -0.000  0.000  1.000 -0.000  0.000
      -0.000  0.000  0.000  1.000  0.000
       1.000  0.022  0.000  0.000 -0.000
       0.000 -0.000 -0.000 -0.000  1.000
     occupation matrix ns (before diag.):
       0.979 -0.000 -0.000  0.003  0.000
      -0.000  0.994 -0.000  0.000  0.000
      -0.000 -0.000  0.994  0.000  0.000
       0.003  0.000  0.000  0.831 -0.000
       0.000  0.000  0.000 -0.000  0.997
     ------------------------ ATOM    6 ------------------------
     Tr[ns(  6)] =   9.59008
     eigenvalues:
       0.831  0.979  0.994  0.994  0.997
     eigenvectors (columns):
      -0.022  1.000 -0.000 -0.000  0.000
      -0.000  0.000  1.000 -0.000  0.000
      -0.000  0.000  0.000  1.000  0.000
       1.000  0.022  0.000  0.000 -0.000
       0.000 -0.000 -0.000 -0.000  1.000
     occupation matrix ns (before diag.):
       0.979 -0.000 -0.000  0.003  0.000
      -0.000  0.994 -0.000  0.000  0.000
      -0.000 -0.000  0.994  0.000  0.000
       0.003  0.000  0.000  0.831 -0.000
       0.000  0.000  0.000 -0.000  0.997

     Number of occupied Hubbard levels =   19.1802

     negative rho (up, down):  4.485E-02 0.000E+00

     HUBBARD ENERGY =    0.2744  (Ry)

     total cpu time spent up to now is      833.1 secs

     total energy              =   -1849.61646982 Ry
     estimated scf accuracy    <       0.02136546 Ry

     iteration # 15     ecut=   120.00 Ry     beta= 0.10
     Davidson diagonalization with overlap

---- Real-time Memory Report at c_bands before calling an iterative solver
          1619 MiB given to the printing process from OS
             0 MiB allocation reported by mallinfo(arena+hblkhd)
          4740 MiB available memory on the node where the printing process lives
------------------
     c_bands:  1 eigenvalues not converged
     ethr =  2.89E-06,  avg # of iterations =  3.9

     =================== HUBBARD OCCUPATIONS ===================
     ------------------------ ATOM    5 ------------------------
     Tr[ns(  5)] =   9.60972
     eigenvalues:
       0.840  0.980  0.994  0.994  0.997
     eigenvectors (columns):
      -0.022  1.000 -0.000 -0.000  0.000
      -0.000  0.000  1.000 -0.000  0.000
      -0.000  0.000  0.000  1.000  0.000
       1.000  0.022  0.000  0.000 -0.000
       0.000 -0.000 -0.000 -0.000  1.000
     occupation matrix ns (before diag.):
       0.980 -0.000 -0.000  0.003  0.000
      -0.000  0.994 -0.000  0.000  0.000
      -0.000 -0.000  0.994  0.000  0.000
       0.003  0.000  0.000  0.840 -0.000
       0.000  0.000  0.000 -0.000  0.997
     ------------------------ ATOM    6 ------------------------
     Tr[ns(  6)] =   9.60972
     eigenvalues:
       0.840  0.980  0.994  0.994  0.997
     eigenvectors (columns):
      -0.022  1.000 -0.000 -0.000  0.000
      -0.000  0.000  1.000 -0.000  0.000
      -0.000  0.000  0.000  1.000  0.000
       1.000  0.022  0.000  0.000 -0.000
       0.000 -0.000 -0.000 -0.000  1.000
     occupation matrix ns (before diag.):
       0.980 -0.000 -0.000  0.003  0.000
      -0.000  0.994 -0.000  0.000  0.000
      -0.000 -0.000  0.994  0.000  0.000
       0.003  0.000  0.000  0.840 -0.000
       0.000  0.000  0.000 -0.000  0.997

     Number of occupied Hubbard levels =   19.2194

     negative rho (up, down):  4.482E-02 0.000E+00

     HUBBARD ENERGY =    0.2763  (Ry)

     total cpu time spent up to now is      890.4 secs

     total energy              =   -1849.61827983 Ry
     estimated scf accuracy    <       0.06845583 Ry

     iteration # 16     ecut=   120.00 Ry     beta= 0.10
     Davidson diagonalization with overlap

---- Real-time Memory Report at c_bands before calling an iterative solver
          1619 MiB given to the printing process from OS
             0 MiB allocation reported by mallinfo(arena+hblkhd)
          4739 MiB available memory on the node where the printing process lives
------------------
     ethr =  2.89E-06,  avg # of iterations =  1.9

     =================== HUBBARD OCCUPATIONS ===================
     ------------------------ ATOM    5 ------------------------
     Tr[ns(  5)] =   9.61841
     eigenvalues:
       0.843  0.980  0.994  0.994  0.997
     eigenvectors (columns):
      -0.022  1.000 -0.000 -0.000  0.000
      -0.000  0.000  1.000 -0.000  0.000
      -0.000  0.000  0.000  1.000  0.000
       1.000  0.022  0.000  0.000 -0.000
       0.000 -0.000 -0.000 -0.000  1.000
     occupation matrix ns (before diag.):
       0.980 -0.000 -0.000  0.003  0.000
      -0.000  0.994 -0.000  0.000  0.000
      -0.000 -0.000  0.994  0.000  0.000
       0.003  0.000  0.000  0.844 -0.000
       0.000  0.000  0.000 -0.000  0.997
     ------------------------ ATOM    6 ------------------------
     Tr[ns(  6)] =   9.61841
     eigenvalues:
       0.843  0.980  0.994  0.994  0.997
     eigenvectors (columns):
      -0.022  1.000 -0.000 -0.000  0.000
      -0.000  0.000  1.000 -0.000  0.000
      -0.000  0.000  0.000  1.000  0.000
       1.000  0.022  0.000  0.000 -0.000
       0.000 -0.000 -0.000 -0.000  1.000
     occupation matrix ns (before diag.):
       0.980 -0.000 -0.000  0.003  0.000
      -0.000  0.994 -0.000  0.000  0.000
      -0.000 -0.000  0.994  0.000  0.000
       0.003  0.000  0.000  0.844 -0.000
       0.000  0.000  0.000 -0.000  0.997

     Number of occupied Hubbard levels =   19.2368

     negative rho (up, down):  4.482E-02 0.000E+00

     HUBBARD ENERGY =    0.2746  (Ry)

     total cpu time spent up to now is      943.1 secs

     total energy              =   -1849.61593077 Ry
     estimated scf accuracy    <       0.09838684 Ry

     iteration # 17     ecut=   120.00 Ry     beta= 0.10
     Davidson diagonalization with overlap

---- Real-time Memory Report at c_bands before calling an iterative solver
          1620 MiB given to the printing process from OS
             0 MiB allocation reported by mallinfo(arena+hblkhd)
          4730 MiB available memory on the node where the printing process lives
------------------
     ethr =  2.89E-06,  avg # of iterations =  1.3
     Minimization algorithm failed to find Fermi energy: reverting to bisection
     Possible cause: smearing is larger than the electronic band-gap.

     =================== HUBBARD OCCUPATIONS ===================
     ------------------------ ATOM    5 ------------------------
     Tr[ns(  5)] =   9.60186
     eigenvalues:
       0.836  0.980  0.994  0.994  0.997
     eigenvectors (columns):
      -0.022  1.000 -0.000 -0.000  0.000
      -0.000  0.000  1.000 -0.000  0.000
      -0.000  0.000  0.000  1.000  0.000
       1.000  0.022  0.000  0.000 -0.000
       0.000 -0.000 -0.000 -0.000  1.000
     occupation matrix ns (before diag.):
       0.980 -0.000 -0.000  0.003  0.000
      -0.000  0.994 -0.000  0.000  0.000
      -0.000 -0.000  0.994  0.000  0.000
       0.003  0.000  0.000  0.836 -0.000
       0.000  0.000  0.000 -0.000  0.997
     ------------------------ ATOM    6 ------------------------
     Tr[ns(  6)] =   9.60186
     eigenvalues:
       0.836  0.980  0.994  0.994  0.997
     eigenvectors (columns):
      -0.022  1.000 -0.000 -0.000  0.000
      -0.000  0.000  1.000 -0.000  0.000
      -0.000  0.000  0.000  1.000  0.000
       1.000  0.022  0.000  0.000 -0.000
       0.000 -0.000 -0.000 -0.000  1.000
     occupation matrix ns (before diag.):
       0.980 -0.000 -0.000  0.003  0.000
      -0.000  0.994 -0.000  0.000  0.000
      -0.000 -0.000  0.994  0.000  0.000
       0.003  0.000  0.000  0.836 -0.000
       0.000  0.000  0.000 -0.000  0.997

     Number of occupied Hubbard levels =   19.2037

     negative rho (up, down):  4.483E-02 0.000E+00

     HUBBARD ENERGY =    0.2728  (Ry)

     total cpu time spent up to now is      993.1 secs

     total energy              =   -1849.61377886 Ry
     estimated scf accuracy    <       0.04860275 Ry

     iteration # 18     ecut=   120.00 Ry     beta= 0.10
     Davidson diagonalization with overlap

---- Real-time Memory Report at c_bands before calling an iterative solver
          1621 MiB given to the printing process from OS
             0 MiB allocation reported by mallinfo(arena+hblkhd)
          4729 MiB available memory on the node where the printing process lives
------------------
     ethr =  2.89E-06,  avg # of iterations =  2.1

     =================== HUBBARD OCCUPATIONS ===================
     ------------------------ ATOM    5 ------------------------
     Tr[ns(  5)] =   9.57833
     eigenvalues:
       0.825  0.979  0.994  0.994  0.997
     eigenvectors (columns):
      -0.022  1.000 -0.000 -0.000  0.000
      -0.000  0.000  1.000 -0.000  0.000
      -0.000  0.000  0.000  1.000  0.000
       1.000  0.022  0.000  0.000 -0.000
       0.000 -0.000 -0.000 -0.000  1.000
     occupation matrix ns (before diag.):
       0.979 -0.000 -0.000  0.003  0.000
      -0.000  0.994 -0.000  0.000  0.000
      -0.000 -0.000  0.994  0.000  0.000
       0.003  0.000  0.000  0.825 -0.000
       0.000  0.000  0.000 -0.000  0.997
     ------------------------ ATOM    6 ------------------------
     Tr[ns(  6)] =   9.57833
     eigenvalues:
       0.825  0.979  0.994  0.994  0.997
     eigenvectors (columns):
      -0.022  1.000 -0.000 -0.000  0.000
      -0.000  0.000  1.000 -0.000  0.000
      -0.000  0.000  0.000  1.000  0.000
       1.000  0.022  0.000  0.000 -0.000
       0.000 -0.000 -0.000 -0.000  1.000
     occupation matrix ns (before diag.):
       0.979 -0.000 -0.000  0.003  0.000
      -0.000  0.994 -0.000  0.000  0.000
      -0.000 -0.000  0.994  0.000  0.000
       0.003  0.000  0.000  0.825 -0.000
       0.000  0.000  0.000 -0.000  0.997

     Number of occupied Hubbard levels =   19.1567

     negative rho (up, down):  4.484E-02 0.000E+00

     HUBBARD ENERGY =    0.2720  (Ry)

     total cpu time spent up to now is     1046.9 secs

     total energy              =   -1849.61398862 Ry
     estimated scf accuracy    <       0.00826168 Ry

     iteration # 19     ecut=   120.00 Ry     beta= 0.10
     Davidson diagonalization with overlap

---- Real-time Memory Report at c_bands before calling an iterative solver
          1621 MiB given to the printing process from OS
             0 MiB allocation reported by mallinfo(arena+hblkhd)
          4732 MiB available memory on the node where the printing process lives
------------------
     ethr =  2.89E-06,  avg # of iterations =  1.2

     =================== HUBBARD OCCUPATIONS ===================
     ------------------------ ATOM    5 ------------------------
     Tr[ns(  5)] =   9.56721
     eigenvalues:
       0.820  0.979  0.993  0.994  0.997
     eigenvectors (columns):
      -0.023  1.000 -0.000 -0.000  0.000
      -0.000  0.000  1.000 -0.000  0.000
      -0.000  0.000  0.000  1.000  0.000
       1.000  0.023  0.000  0.000 -0.000
       0.000 -0.000 -0.000 -0.000  1.000
     occupation matrix ns (before diag.):
       0.979 -0.000 -0.000  0.004  0.000
      -0.000  0.993 -0.000  0.000  0.000
      -0.000 -0.000  0.994  0.000  0.000
       0.004  0.000  0.000  0.820 -0.000
       0.000  0.000  0.000 -0.000  0.997
     ------------------------ ATOM    6 ------------------------
     Tr[ns(  6)] =   9.56721
     eigenvalues:
       0.820  0.979  0.993  0.994  0.997
     eigenvectors (columns):
      -0.023  1.000 -0.000 -0.000  0.000
      -0.000  0.000  1.000 -0.000  0.000
      -0.000  0.000  0.000  1.000  0.000
       1.000  0.023  0.000  0.000 -0.000
       0.000 -0.000 -0.000 -0.000  1.000
     occupation matrix ns (before diag.):
       0.979 -0.000 -0.000  0.004  0.000
      -0.000  0.993 -0.000  0.000  0.000
      -0.000 -0.000  0.994  0.000  0.000
       0.004  0.000  0.000  0.820 -0.000
       0.000  0.000  0.000 -0.000  0.997

     Number of occupied Hubbard levels =   19.1344

     negative rho (up, down):  4.485E-02 0.000E+00

     HUBBARD ENERGY =    0.2708  (Ry)

     total cpu time spent up to now is     1097.3 secs

     total energy              =   -1849.61405721 Ry
     estimated scf accuracy    <       0.00105356 Ry

     iteration # 20     ecut=   120.00 Ry     beta= 0.10
     Davidson diagonalization with overlap

---- Real-time Memory Report at c_bands before calling an iterative solver
          1622 MiB given to the printing process from OS
             0 MiB allocation reported by mallinfo(arena+hblkhd)
          4726 MiB available memory on the node where the printing process lives
------------------
     c_bands:  1 eigenvalues not converged
     ethr =  1.05E-06,  avg # of iterations =  2.1

     =================== HUBBARD OCCUPATIONS ===================
     ------------------------ ATOM    5 ------------------------
     Tr[ns(  5)] =   9.56282
     eigenvalues:
       0.818  0.979  0.993  0.994  0.997
     eigenvectors (columns):
      -0.023  1.000 -0.000 -0.000  0.000
      -0.000  0.000  1.000 -0.000  0.000
      -0.000  0.000  0.000  1.000  0.000
       1.000  0.023  0.000  0.000 -0.000
       0.000 -0.000 -0.000 -0.000  1.000
     occupation matrix ns (before diag.):
       0.979 -0.000 -0.000  0.004  0.000
      -0.000  0.993 -0.000  0.000  0.000
      -0.000 -0.000  0.994  0.000  0.000
       0.004  0.000  0.000  0.818 -0.000
       0.000  0.000  0.000 -0.000  0.997
     ------------------------ ATOM    6 ------------------------
     Tr[ns(  6)] =   9.56282
     eigenvalues:
       0.818  0.979  0.993  0.994  0.997
     eigenvectors (columns):
      -0.023  1.000 -0.000 -0.000  0.000
      -0.000  0.000  1.000 -0.000  0.000
      -0.000  0.000  0.000  1.000  0.000
       1.000  0.023  0.000  0.000 -0.000
       0.000 -0.000 -0.000 -0.000  1.000
     occupation matrix ns (before diag.):
       0.979 -0.000 -0.000  0.004  0.000
      -0.000  0.993 -0.000  0.000  0.000
      -0.000 -0.000  0.994  0.000  0.000
       0.004  0.000  0.000  0.818 -0.000
       0.000  0.000  0.000 -0.000  0.997

     Number of occupied Hubbard levels =   19.1256

     negative rho (up, down):  4.482E-02 0.000E+00

     HUBBARD ENERGY =    0.2728  (Ry)

     total cpu time spent up to now is     1149.6 secs

     total energy              =   -1849.61410056 Ry
     estimated scf accuracy    <       0.00010287 Ry

     iteration # 21     ecut=   120.00 Ry     beta= 0.10
     Davidson diagonalization with overlap

---- Real-time Memory Report at c_bands before calling an iterative solver
          1622 MiB given to the printing process from OS
             0 MiB allocation reported by mallinfo(arena+hblkhd)
          4724 MiB available memory on the node where the printing process lives
------------------
     ethr =  1.03E-07,  avg # of iterations =  2.6

     =================== HUBBARD OCCUPATIONS ===================
     ------------------------ ATOM    5 ------------------------
     Tr[ns(  5)] =   9.56051
     eigenvalues:
       0.817  0.979  0.993  0.994  0.997
     eigenvectors (columns):
      -0.023  1.000 -0.000 -0.000  0.000
      -0.000  0.000  1.000 -0.000  0.000
      -0.000  0.000  0.000  1.000  0.000
       1.000  0.023  0.000  0.000 -0.000
       0.000 -0.000 -0.000 -0.000  1.000
     occupation matrix ns (before diag.):
       0.979 -0.000 -0.000  0.004  0.000
[...]

     iteration # 94     ecut=   120.00 Ry     beta= 0.10
     Davidson diagonalization with overlap

---- Real-time Memory Report at c_bands before calling an iterative solver
          1657 MiB given to the printing process from OS
             0 MiB allocation reported by mallinfo(arena+hblkhd)
          4656 MiB available memory on the node where the printing process lives
------------------
     ethr =  5.09E-11,  avg # of iterations =  5.2
     Minimization algorithm failed to find Fermi energy: reverting to bisection
     Possible cause: smearing is larger than the electronic band-gap.

     =================== HUBBARD OCCUPATIONS ===================
     ------------------------ ATOM    5 ------------------------
     Tr[ns(  5)] =   9.56840
     eigenvalues:
       0.821  0.979  0.993  0.994  0.997
     eigenvectors (columns):
      -0.022  1.000 -0.000 -0.000  0.000
      -0.000  0.000  1.000 -0.000  0.000
      -0.000  0.000  0.000  1.000  0.000
       1.000  0.022  0.000  0.000 -0.000
       0.000 -0.000 -0.000 -0.000  1.000
     occupation matrix ns (before diag.):
       0.979 -0.000 -0.000  0.003  0.000
      -0.000  0.993 -0.000  0.000  0.000
      -0.000 -0.000  0.994  0.000  0.000
       0.003  0.000  0.000  0.821 -0.000
       0.000  0.000  0.000 -0.000  0.997
     ------------------------ ATOM    6 ------------------------
     Tr[ns(  6)] =   9.56840
     eigenvalues:
       0.821  0.979  0.993  0.994  0.997
     eigenvectors (columns):
      -0.022  1.000 -0.000 -0.000  0.000
      -0.000  0.000  1.000 -0.000  0.000
      -0.000  0.000  0.000  1.000  0.000
       1.000  0.022  0.000  0.000 -0.000
       0.000 -0.000 -0.000 -0.000  1.000
     occupation matrix ns (before diag.):
       0.979 -0.000 -0.000  0.003  0.000
      -0.000  0.993 -0.000  0.000  0.000
      -0.000 -0.000  0.994  0.000  0.000
       0.003  0.000  0.000  0.821 -0.000
       0.000  0.000  0.000 -0.000  0.997

     Number of occupied Hubbard levels =   19.1368

     negative rho (up, down):  3.135E+00 0.000E+00

     HUBBARD ENERGY =    0.2691  (Ry)

     total cpu time spent up to now is     7873.1 secs

     total energy              =   -1849.09616047 Ry
     estimated scf accuracy    <       0.00000024 Ry

     iteration # 95     ecut=   120.00 Ry     beta= 0.10
     Davidson diagonalization with overlap

---- Real-time Memory Report at c_bands before calling an iterative solver
          1657 MiB given to the printing process from OS
             0 MiB allocation reported by mallinfo(arena+hblkhd)
          4657 MiB available memory on the node where the printing process lives
------------------
     ethr =  5.09E-11,  avg # of iterations =  5.4
     Minimization algorithm failed to find Fermi energy: reverting to bisection
     Possible cause: smearing is larger than the electronic band-gap.

     =================== HUBBARD OCCUPATIONS ===================
     ------------------------ ATOM    5 ------------------------
     Tr[ns(  5)] =   9.56840
     eigenvalues:
       0.821  0.979  0.993  0.994  0.997
     eigenvectors (columns):
      -0.022  1.000 -0.000 -0.000  0.000
      -0.000  0.000  1.000 -0.000  0.000
      -0.000  0.000  0.000  1.000  0.000
       1.000  0.022  0.000  0.000 -0.000
       0.000 -0.000 -0.000 -0.000  1.000
     occupation matrix ns (before diag.):
       0.979 -0.000 -0.000  0.003  0.000
      -0.000  0.993 -0.000  0.000  0.000
      -0.000 -0.000  0.994  0.000  0.000
       0.003  0.000  0.000  0.821 -0.000
       0.000  0.000  0.000 -0.000  0.997
     ------------------------ ATOM    6 ------------------------
     Tr[ns(  6)] =   9.56840
     eigenvalues:
       0.821  0.979  0.993  0.994  0.997
     eigenvectors (columns):
      -0.022  1.000 -0.000 -0.000  0.000
      -0.000  0.000  1.000 -0.000  0.000
      -0.000  0.000  0.000  1.000  0.000
       1.000  0.022  0.000  0.000 -0.000
       0.000 -0.000 -0.000 -0.000  1.000
     occupation matrix ns (before diag.):
       0.979 -0.000 -0.000  0.003  0.000
      -0.000  0.993 -0.000  0.000  0.000
      -0.000 -0.000  0.994  0.000  0.000
       0.003  0.000  0.000  0.821 -0.000
       0.000  0.000  0.000 -0.000  0.997

     Number of occupied Hubbard levels =   19.1368

     negative rho (up, down):  3.135E+00 0.000E+00

     HUBBARD ENERGY =    0.2691  (Ry)

     total cpu time spent up to now is     7937.4 secs

     total energy              =   -1849.09620823 Ry
     estimated scf accuracy    <       0.00000006 Ry

     iteration # 96     ecut=   120.00 Ry     beta= 0.10
     Davidson diagonalization with overlap

---- Real-time Memory Report at c_bands before calling an iterative solver
          1657 MiB given to the printing process from OS
             0 MiB allocation reported by mallinfo(arena+hblkhd)
          4656 MiB available memory on the node where the printing process lives
------------------
     ethr =  5.09E-11,  avg # of iterations =  5.9
     Minimization algorithm failed to find Fermi energy: reverting to bisection
     Possible cause: smearing is larger than the electronic band-gap.

     =================== HUBBARD OCCUPATIONS ===================
     ------------------------ ATOM    5 ------------------------
     Tr[ns(  5)] =   9.56839
     eigenvalues:
       0.821  0.979  0.993  0.994  0.997
     eigenvectors (columns):
      -0.022  1.000 -0.000 -0.000  0.000
      -0.000  0.000  1.000 -0.000  0.000
      -0.000  0.000  0.000  1.000  0.000
       1.000  0.022  0.000  0.000 -0.000
       0.000 -0.000 -0.000 -0.000  1.000
     occupation matrix ns (before diag.):
       0.979 -0.000 -0.000  0.003  0.000
      -0.000  0.993 -0.000  0.000  0.000
      -0.000 -0.000  0.994  0.000  0.000
       0.003  0.000  0.000  0.821 -0.000
       0.000  0.000  0.000 -0.000  0.997
     ------------------------ ATOM    6 ------------------------
     Tr[ns(  6)] =   9.56839
     eigenvalues:
       0.821  0.979  0.993  0.994  0.997
     eigenvectors (columns):
      -0.022  1.000 -0.000 -0.000  0.000
      -0.000  0.000  1.000 -0.000  0.000
      -0.000  0.000  0.000  1.000  0.000
       1.000  0.022  0.000  0.000 -0.000
       0.000 -0.000 -0.000 -0.000  1.000
     occupation matrix ns (before diag.):
       0.979 -0.000 -0.000  0.003  0.000
      -0.000  0.993 -0.000  0.000  0.000
      -0.000 -0.000  0.994  0.000  0.000
       0.003  0.000  0.000  0.821 -0.000
       0.000  0.000  0.000 -0.000  0.997

     Number of occupied Hubbard levels =   19.1368

     negative rho (up, down):  3.134E+00 0.000E+00

     HUBBARD ENERGY =    0.2691  (Ry)

     total cpu time spent up to now is     7999.7 secs

     total energy              =   -1849.09626247 Ry
     estimated scf accuracy    <       0.00000014 Ry

     iteration # 97     ecut=   120.00 Ry     beta= 0.10
     Davidson diagonalization with overlap

---- Real-time Memory Report at c_bands before calling an iterative solver
          1657 MiB given to the printing process from OS
             0 MiB allocation reported by mallinfo(arena+hblkhd)
          4660 MiB available memory on the node where the printing process lives
------------------
     ethr =  5.09E-11,  avg # of iterations =  5.0
     Minimization algorithm failed to find Fermi energy: reverting to bisection
     Possible cause: smearing is larger than the electronic band-gap.

     =================== HUBBARD OCCUPATIONS ===================
     ------------------------ ATOM    5 ------------------------
     Tr[ns(  5)] =   9.56839
     eigenvalues:
       0.821  0.979  0.993  0.994  0.997
     eigenvectors (columns):
      -0.022  1.000 -0.000 -0.000  0.000
      -0.000  0.000  1.000 -0.000  0.000
      -0.000  0.000  0.000  1.000  0.000
       1.000  0.022  0.000  0.000 -0.000
       0.000 -0.000 -0.000 -0.000  1.000
     occupation matrix ns (before diag.):
       0.979 -0.000 -0.000  0.003  0.000
      -0.000  0.993 -0.000  0.000  0.000
      -0.000 -0.000  0.994  0.000  0.000
       0.003  0.000  0.000  0.821 -0.000
       0.000  0.000  0.000 -0.000  0.997
     ------------------------ ATOM    6 ------------------------
     Tr[ns(  6)] =   9.56839
     eigenvalues:
       0.821  0.979  0.993  0.994  0.997
     eigenvectors (columns):
      -0.022  1.000 -0.000 -0.000  0.000
      -0.000  0.000  1.000 -0.000  0.000
      -0.000  0.000  0.000  1.000  0.000
       1.000  0.022  0.000  0.000 -0.000
       0.000 -0.000 -0.000 -0.000  1.000
     occupation matrix ns (before diag.):
       0.979 -0.000 -0.000  0.003  0.000
      -0.000  0.993 -0.000  0.000  0.000
      -0.000 -0.000  0.994  0.000  0.000
       0.003  0.000  0.000  0.821 -0.000
       0.000  0.000  0.000 -0.000  0.997

     Number of occupied Hubbard levels =   19.1368

     negative rho (up, down):  3.134E+00 0.000E+00

     HUBBARD ENERGY =    0.2691  (Ry)

     total cpu time spent up to now is     8063.9 secs

     total energy              =   -1849.09627520 Ry
     estimated scf accuracy    <       0.00000056 Ry

     iteration # 98     ecut=   120.00 Ry     beta= 0.10
     Davidson diagonalization with overlap

---- Real-time Memory Report at c_bands before calling an iterative solver
          1657 MiB given to the printing process from OS
             0 MiB allocation reported by mallinfo(arena+hblkhd)
          4666 MiB available memory on the node where the printing process lives
------------------
     ethr =  5.09E-11,  avg # of iterations =  4.0
     Minimization algorithm failed to find Fermi energy: reverting to bisection
     Possible cause: smearing is larger than the electronic band-gap.

     =================== HUBBARD OCCUPATIONS ===================
     ------------------------ ATOM    5 ------------------------
     Tr[ns(  5)] =   9.56840
     eigenvalues:
       0.821  0.979  0.993  0.994  0.997
     eigenvectors (columns):
      -0.022  1.000 -0.000 -0.000  0.000
      -0.000  0.000  1.000 -0.000  0.000
      -0.000  0.000  0.000  1.000  0.000
       1.000  0.022  0.000  0.000 -0.000
       0.000 -0.000 -0.000 -0.000  1.000
     occupation matrix ns (before diag.):
       0.979 -0.000 -0.000  0.003  0.000
      -0.000  0.993 -0.000  0.000  0.000
      -0.000 -0.000  0.994  0.000  0.000
       0.003  0.000  0.000  0.821 -0.000
       0.000  0.000  0.000 -0.000  0.997
     ------------------------ ATOM    6 ------------------------
     Tr[ns(  6)] =   9.56840
     eigenvalues:
       0.821  0.979  0.993  0.994  0.997
     eigenvectors (columns):
      -0.022  1.000 -0.000 -0.000  0.000
      -0.000  0.000  1.000 -0.000  0.000
      -0.000  0.000  0.000  1.000  0.000
       1.000  0.022  0.000  0.000 -0.000
       0.000 -0.000 -0.000 -0.000  1.000
     occupation matrix ns (before diag.):
       0.979 -0.000 -0.000  0.003  0.000
      -0.000  0.993 -0.000  0.000  0.000
      -0.000 -0.000  0.994  0.000  0.000
       0.003  0.000  0.000  0.821 -0.000
       0.000  0.000  0.000 -0.000  0.997

     Number of occupied Hubbard levels =   19.1368

     negative rho (up, down):  3.134E+00 0.000E+00

     HUBBARD ENERGY =    0.2691  (Ry)

     total cpu time spent up to now is     8123.7 secs

     total energy              =   -1849.09627337 Ry
     estimated scf accuracy    <       0.00000011 Ry

     iteration # 99     ecut=   120.00 Ry     beta= 0.10
     Davidson diagonalization with overlap

---- Real-time Memory Report at c_bands before calling an iterative solver
          1657 MiB given to the printing process from OS
             0 MiB allocation reported by mallinfo(arena+hblkhd)
          4665 MiB available memory on the node where the printing process lives
------------------
     ethr =  5.09E-11,  avg # of iterations =  5.5
     Minimization algorithm failed to find Fermi energy: reverting to bisection
     Possible cause: smearing is larger than the electronic band-gap.

     =================== HUBBARD OCCUPATIONS ===================
     ------------------------ ATOM    5 ------------------------
     Tr[ns(  5)] =   9.56840
     eigenvalues:
       0.821  0.979  0.993  0.994  0.997
     eigenvectors (columns):
      -0.022  1.000 -0.000 -0.000  0.000
      -0.000  0.000  1.000 -0.000  0.000
      -0.000  0.000  0.000  1.000  0.000
       1.000  0.022  0.000  0.000 -0.000
       0.000 -0.000 -0.000 -0.000  1.000
     occupation matrix ns (before diag.):
       0.979 -0.000 -0.000  0.003  0.000
      -0.000  0.993 -0.000  0.000  0.000
      -0.000 -0.000  0.994  0.000  0.000
       0.003  0.000  0.000  0.821 -0.000
       0.000  0.000  0.000 -0.000  0.997
     ------------------------ ATOM    6 ------------------------
     Tr[ns(  6)] =   9.56840
     eigenvalues:
       0.821  0.979  0.993  0.994  0.997
     eigenvectors (columns):
      -0.022  1.000 -0.000 -0.000  0.000
      -0.000  0.000  1.000 -0.000  0.000
      -0.000  0.000  0.000  1.000  0.000
       1.000  0.022  0.000  0.000 -0.000
       0.000 -0.000 -0.000 -0.000  1.000
     occupation matrix ns (before diag.):
       0.979 -0.000 -0.000  0.003  0.000
      -0.000  0.993 -0.000  0.000  0.000
      -0.000 -0.000  0.994  0.000  0.000
       0.003  0.000  0.000  0.821 -0.000
       0.000  0.000  0.000 -0.000  0.997

     Number of occupied Hubbard levels =   19.1368

     negative rho (up, down):  3.134E+00 0.000E+00

     HUBBARD ENERGY =    0.2691  (Ry)

     total cpu time spent up to now is     8186.4 secs

     total energy              =   -1849.09632708 Ry
     estimated scf accuracy    <       0.00000034 Ry

     iteration #100     ecut=   120.00 Ry     beta= 0.10
     Davidson diagonalization with overlap

---- Real-time Memory Report at c_bands before calling an iterative solver
          1657 MiB given to the printing process from OS
             0 MiB allocation reported by mallinfo(arena+hblkhd)
          4661 MiB available memory on the node where the printing process lives
------------------
     ethr =  5.09E-11,  avg # of iterations =  5.0
     Minimization algorithm failed to find Fermi energy: reverting to bisection
     Possible cause: smearing is larger than the electronic band-gap.

     =================== HUBBARD OCCUPATIONS ===================
     ------------------------ ATOM    5 ------------------------
     Tr[ns(  5)] =   9.56840
     eigenvalues:
       0.821  0.979  0.993  0.994  0.997
     eigenvectors (columns):
      -0.022  1.000 -0.000 -0.000  0.000
      -0.000  0.000  1.000 -0.000  0.000
      -0.000  0.000  0.000  1.000  0.000
       1.000  0.022  0.000  0.000 -0.000
       0.000 -0.000 -0.000 -0.000  1.000
     occupation matrix ns (before diag.):
       0.979 -0.000 -0.000  0.003  0.000
      -0.000  0.993 -0.000  0.000  0.000
      -0.000 -0.000  0.994  0.000  0.000
       0.003  0.000  0.000  0.821 -0.000
       0.000  0.000  0.000 -0.000  0.997
     ------------------------ ATOM    6 ------------------------
     Tr[ns(  6)] =   9.56840
     eigenvalues:
       0.821  0.979  0.993  0.994  0.997
     eigenvectors (columns):
      -0.022  1.000 -0.000 -0.000  0.000
      -0.000  0.000  1.000 -0.000  0.000
      -0.000  0.000  0.000  1.000  0.000
       1.000  0.022  0.000  0.000 -0.000
       0.000 -0.000 -0.000 -0.000  1.000
     occupation matrix ns (before diag.):
       0.979 -0.000 -0.000  0.003  0.000
      -0.000  0.993 -0.000  0.000  0.000
      -0.000 -0.000  0.994  0.000  0.000
       0.003  0.000  0.000  0.821 -0.000
       0.000  0.000  0.000 -0.000  0.997

     Number of occupied Hubbard levels =   19.1368

     negative rho (up, down):  3.134E+00 0.000E+00

     HUBBARD ENERGY =    0.2691  (Ry)

     total cpu time spent up to now is     8249.8 secs

     total energy              =   -1849.09629763 Ry
     estimated scf accuracy    <       0.00000056 Ry

     End of self-consistent calculation

     convergence NOT achieved after 100 iterations: stopping

     Writing config to output data dir ./YBCO.relax/YBCO.relax.save/
 
     init_run     :     26.73s CPU     27.59s WALL (       1 calls)
     electrons    :   7900.74s CPU   8059.31s WALL (       2 calls)
     update_pot   :      0.31s CPU      0.33s WALL (       1 calls)
     forces       :    150.19s CPU    152.86s WALL (       1 calls)

     Called by init_run:
     wfcinit      :     24.57s CPU     25.12s WALL (       1 calls)
     wfcinit:atom :      0.39s CPU      0.39s WALL (     125 calls)
     wfcinit:wfcr :     17.37s CPU     17.83s WALL (     125 calls)
     potinit      :      0.21s CPU      0.27s WALL (       1 calls)
     hinit0       :      0.83s CPU      0.85s WALL (       1 calls)

     Called by electrons:
     c_bands      :   6490.57s CPU   6559.30s WALL (     135 calls)
     sum_band     :   1234.56s CPU   1287.40s WALL (     135 calls)
     v_of_rho     :     12.95s CPU     13.50s WALL (     137 calls)
     v_h          :      1.11s CPU      1.18s WALL (     137 calls)
     v_xc         :     11.92s CPU     12.40s WALL (     138 calls)
     newd         :    137.97s CPU    171.99s WALL (     137 calls)
     PAW_pot      :     22.66s CPU     25.41s WALL (     138 calls)
     mix_rho      :      3.09s CPU      3.26s WALL (     135 calls)

     Called by c_bands:
     init_us_2    :    124.52s CPU    124.97s WALL (   34500 calls)
     init_us_2:cp :    124.37s CPU    124.89s WALL (   34500 calls)
     cegterg      :   5894.16s CPU   5960.15s WALL (   16875 calls)

     Called by sum_band:
     sum_band:wei :      1.35s CPU      1.35s WALL (     135 calls)
     sum_band:loo :   1035.64s CPU   1047.70s WALL (     135 calls)
     sum_band:buf :     21.27s CPU     21.31s WALL (   16875 calls)
     sum_band:ini :     60.15s CPU     60.21s WALL (   16875 calls)
     sum_band:cal :    166.87s CPU    169.02s WALL (   17000 calls)
     sum_band:bec :      0.78s CPU      0.78s WALL (   17000 calls)
     addusdens    :    160.75s CPU    200.15s WALL (     135 calls)
                                        0.00s GPU  (     135 calls)
     addusd:skk   :      0.72s CPU      0.74s WALL (     675 calls)
                                        0.00s GPU  (     675 calls)

     Called by *egterg:
     cdiaghg      :    163.48s CPU    165.44s WALL (   84164 calls)
     cegterg:over :    380.67s CPU    386.67s WALL (   67414 calls)
     cegterg:upda :    239.39s CPU    240.80s WALL (   67414 calls)
     cegterg:last :    481.96s CPU    482.95s WALL (   32581 calls)
     h_psi        :   3937.20s CPU   3986.16s WALL (   84414 calls)
     s_psi        :    457.69s CPU    460.93s WALL (   84914 calls)
     g_psi        :     17.31s CPU     17.36s WALL (   67414 calls)

     Called by h_psi:
     h_psi:calbec :    451.10s CPU    457.00s WALL (   84414 calls)
     vloc_psi     :   2850.26s CPU   2889.48s WALL (   84414 calls)
     add_vuspsi   :    444.88s CPU    446.38s WALL (   84414 calls)
     vhpsi        :    146.08s CPU    148.25s WALL (   84414 calls)

     General routines
     calbec       :    741.01s CPU    751.20s WALL (  239828 calls)
     fft          :      6.94s CPU      7.39s WALL (    1791 calls)
     ffts         :      0.26s CPU      0.27s WALL (     272 calls)
     fftw         :   2488.84s CPU   2522.87s WALL ( 5614246 calls)
     interpolate  :      0.76s CPU      0.80s WALL (     137 calls)
     davcio       :      0.12s CPU      0.55s WALL (     268 calls)
 
     Parallel routines

     Hubbard U routines
     new_ns       :     33.97s CPU     34.50s WALL (     135 calls)
     vhpsi        :    146.08s CPU    148.25s WALL (   84414 calls)
     force_hub    :    141.26s CPU    143.64s WALL (       1 calls)
                                        0.00s GPU  (       1 calls)

     PAW routines
     PAW_pot      :     22.66s CPU     25.41s WALL (     138 calls)
     PAW_symme    :      0.04s CPU      0.04s WALL (     273 calls)
 
     PWSCF        :      2h14m CPU      2h17m WALL

 
   This run was terminated on:  12:37:16   4Dec2023            

=------------------------------------------------------------------------------=
   JOB DONE.
=------------------------------------------------------------------------------=
