
     Program PWSCF v.7.2 starts on  1Jan2024 at 18:37:55 

     This program is part of the open-source Quantum ESPRESSO suite
     for quantum simulation of materials; please cite
         "P. Giannozzi et al., J. Phys.:Condens. Matter 21 395502 (2009);
         "P. Giannozzi et al., J. Phys.:Condens. Matter 29 465901 (2017);
         "P. Giannozzi et al., J. Chem. Phys. 152 154105 (2020);
          URL http://www.quantum-espresso.org", 
     in publications or presentations arising from this work. More details at
     http://www.quantum-espresso.org/quote

     Parallel version (MPI), running on     4 processors

     MPI processes distributed on     1 nodes
     5866 MiB available memory on the printing compute node when the environment starts
 
     Waiting for input...
     Reading input from standard input
Warning: card &CELL ignored
Warning: card / ignored

     Current dimensions of program PWSCF are:
     Max number of different atomic species (ntypx) = 10
     Max number of k-points (npk) =  40000
     Max angular momentum in pseudopotentials (lmaxx) =  4
     Found identity + ( -0.5000 -0.5000  0.0000) symmetry
     This is a supercell, fractional translations are disabled
 
     R & G space division:  proc/nbgrp/npool/nimage =       4
     Subspace diagonalization in iterative solution of the eigenvalue problem:
     one sub-group per band group will be used
     custom distributed-memory algorithm (size of sub-group:  2*  2 procs)

 
     Parallelization info
     --------------------
     sticks:   dense  smooth     PW     G-vecs:    dense   smooth      PW
     Min        2210     984    252               238514    70654    9320
     Max        2211     985    253               238519    70656    9324
     Sum        8841    3937   1009               954065   282619   37287
 
     Using Slab Decomposition
 


     bravais-lattice index     =            6
     lattice parameter (alat)  =      14.3459  a.u.
     unit-cell volume          =    4502.1906 (a.u.)^3
     number of atoms/cell      =           48
     number of atomic types    =            6
     number of electrons       =       496.00
     number of Kohn-Sham states=          298
     kinetic-energy cutoff     =      60.0000  Ry
     charge density cutoff     =     540.0000  Ry
     scf convergence threshold =      1.0E-08
     mixing beta               =       0.1000
     number of iterations used =            8  plain     mixing
     Exchange-correlation= SLA  PW   PBE  PBE
                           (   1   4   3   4   0   0   0)
     Hubbard projectors: ortho-atomic
     Hubbard parameters of DFT+U (Dudarev formulation) in eV:
     U(Cu1-3d) =  2.5000
     U(Cu2-3d) =  2.5000

     Internal variables: lda_plus_u = T, lda_plus_u_kind = 0

     celldm(1)=  14.345919  celldm(2)=   0.000000  celldm(3)=   1.524891
     celldm(4)=   0.000000  celldm(5)=   0.000000  celldm(6)=   0.000000

     crystal axes: (cart. coord. in units of alat)
               a(1) = (   1.000000   0.000000   0.000000 )  
               a(2) = (   0.000000   1.000000   0.000000 )  
               a(3) = (   0.000000   0.000000   1.524891 )  

     reciprocal axes: (cart. coord. in units 2 pi/alat)
               b(1) = (  1.000000  0.000000  0.000000 )  
               b(2) = (  0.000000  1.000000  0.000000 )  
               b(3) = (  0.000000  0.000000  0.655785 )  


     PseudoPot. # 1 for Y  read from file:
     ~/q-e/pseudo/all_pbe_UPF_v1.5/y_pbe_v1.4.uspp.F.UPF
     MD5 check sum: Not computed, couldn't open file
     Pseudo is Ultrasoft + core correction, Zval = 11.0
     Generated by new atomic code, or converted to UPF format
     Using radial grid of  885 points,  6 beta functions with: 
                l(1) =   0
                l(2) =   0
                l(3) =   1
                l(4) =   1
                l(5) =   2
                l(6) =   2
     Q(r) pseudized with  8 coefficients,  rinner =    1.200   1.200   1.200
                                                       1.200   1.200

     PseudoPot. # 2 for Ba read from file:
     ~/q-e/pseudo/all_pbe_UPF_v1.5/ba_pbe_v1.uspp.F.UPF
     MD5 check sum: Not computed, couldn't open file
     Pseudo is Ultrasoft + core correction, Zval = 10.0
     Generated by new atomic code, or converted to UPF format
     Using radial grid of  907 points,  7 beta functions with: 
                l(1) =   0
                l(2) =   0
                l(3) =   1
                l(4) =   1
                l(5) =   2
                l(6) =   2
                l(7) =   3
     Q(r) pseudized with  6 coefficients,  rinner =    1.700   1.700   1.700
                                                       1.700   1.700   1.700
                                                       1.700

     PseudoPot. # 3 for Cu read from file:
     ~/q-e/pseudo/all_pbe_UPF_v1.5/cu_pbe_v1.2.uspp.F.UPF
     MD5 check sum: Not computed, couldn't open file
     Pseudo is Ultrasoft + core correction, Zval = 19.0
     Generated by new atomic code, or converted to UPF format
     Using radial grid of  867 points,  6 beta functions with: 
                l(1) =   0
                l(2) =   0
                l(3) =   1
                l(4) =   1
                l(5) =   2
                l(6) =   2
     Q(r) pseudized with  8 coefficients,  rinner =    1.150   1.150   1.150
                                                       1.150   1.150

     PseudoPot. # 4 for Cu read from file:
     ~/q-e/pseudo/all_pbe_UPF_v1.5/cu_pbe_v1.2.uspp.F.UPF
     MD5 check sum: Not computed, couldn't open file
     Pseudo is Ultrasoft + core correction, Zval = 19.0
     Generated by new atomic code, or converted to UPF format
     Using radial grid of  867 points,  6 beta functions with: 
                l(1) =   0
                l(2) =   0
                l(3) =   1
                l(4) =   1
                l(5) =   2
                l(6) =   2
     Q(r) pseudized with  8 coefficients,  rinner =    1.150   1.150   1.150
                                                       1.150   1.150

     PseudoPot. # 5 for Cu read from file:
     ~/q-e/pseudo/all_pbe_UPF_v1.5/cu_pbe_v1.2.uspp.F.UPF
     MD5 check sum: Not computed, couldn't open file
     Pseudo is Ultrasoft + core correction, Zval = 19.0
     Generated by new atomic code, or converted to UPF format
     Using radial grid of  867 points,  6 beta functions with: 
                l(1) =   0
                l(2) =   0
                l(3) =   1
                l(4) =   1
                l(5) =   2
                l(6) =   2
     Q(r) pseudized with  8 coefficients,  rinner =    1.150   1.150   1.150
                                                       1.150   1.150

     PseudoPot. # 6 for O  read from file:
     ~/q-e/pseudo/all_pbe_UPF_v1.5/o_pbe_v1.2.uspp.F.UPF
     MD5 check sum: Not computed, couldn't open file
     Pseudo is Ultrasoft + core correction, Zval =  6.0
     Generated by new atomic code, or converted to UPF format
     Using radial grid of  737 points,  5 beta functions with: 
                l(1) =   0
                l(2) =   0
                l(3) =   1
                l(4) =   1
                l(5) =   2
     Q(r) pseudized with  8 coefficients,  rinner =    0.900   0.900   0.900
                                                       0.900   0.900

     atomic species   valence    mass     pseudopotential
     Y                11.00    88.90584     Y ( 1.00)
     Ba               10.00   137.32700     Ba( 1.00)
     Cu               19.00    63.54600     Cu( 1.00)
     Cu1              19.00    63.54600     Cu( 1.00)
     Cu2              19.00    63.54600     Cu( 1.00)
     O                 6.00    15.99900     O ( 1.00)

     Starting magnetic structure 
     atomic species   magnetization
     Y               0.000
     Ba              0.000
     Cu              0.000
     Cu1             0.100
     Cu2            -0.100
     O               0.000

     16 Sym. Ops., with inversion, found


                                    s                        frac. trans.

      isym =  1     identity                                     

 cryst.   s( 1) = (     1          0          0      )
                  (     0          1          0      )
                  (     0          0          1      )

 cart.    s( 1) = (  1.0000000  0.0000000  0.0000000 )
                  (  0.0000000  1.0000000  0.0000000 )
                  (  0.0000000  0.0000000  1.0000000 )


      isym =  2     180 deg rotation - cart. axis [0,0,1]        

 cryst.   s( 2) = (    -1          0          0      )
                  (     0         -1          0      )
                  (     0          0          1      )

 cart.    s( 2) = ( -1.0000000  0.0000000  0.0000000 )
                  (  0.0000000 -1.0000000  0.0000000 )
                  (  0.0000000  0.0000000  1.0000000 )


      isym =  3     180 deg rotation - cart. axis [0,1,0]        

 cryst.   s( 3) = (    -1          0          0      )
                  (     0          1          0      )
                  (     0          0         -1      )

 cart.    s( 3) = ( -1.0000000  0.0000000  0.0000000 )
                  (  0.0000000  1.0000000  0.0000000 )
                  (  0.0000000  0.0000000 -1.0000000 )


      isym =  4     180 deg rotation - cart. axis [1,0,0]        

 cryst.   s( 4) = (     1          0          0      )
                  (     0         -1          0      )
                  (     0          0         -1      )

 cart.    s( 4) = (  1.0000000  0.0000000  0.0000000 )
                  (  0.0000000 -1.0000000  0.0000000 )
                  (  0.0000000  0.0000000 -1.0000000 )


      isym =  5     180 deg rotation - cart. axis [1,1,0]        

 cryst.   s( 5) = (     0          1          0      )
                  (     1          0          0      )
                  (     0          0         -1      )

 cart.    s( 5) = (  0.0000000  1.0000000  0.0000000 )
                  (  1.0000000  0.0000000  0.0000000 )
                  (  0.0000000  0.0000000 -1.0000000 )


      isym =  6     180 deg rotation - cart. axis [1,-1,0]       

 cryst.   s( 6) = (     0         -1          0      )
                  (    -1          0          0      )
                  (     0          0         -1      )

 cart.    s( 6) = (  0.0000000 -1.0000000  0.0000000 )
                  ( -1.0000000  0.0000000  0.0000000 )
                  (  0.0000000  0.0000000 -1.0000000 )


      isym =  7      90 deg rotation - cart. axis [0,0,-1]       

 cryst.   s( 7) = (     0         -1          0      )
                  (     1          0          0      )
                  (     0          0          1      )

 cart.    s( 7) = (  0.0000000  1.0000000  0.0000000 )
                  ( -1.0000000  0.0000000  0.0000000 )
                  (  0.0000000  0.0000000  1.0000000 )


      isym =  8      90 deg rotation - cart. axis [0,0,1]        

 cryst.   s( 8) = (     0          1          0      )
                  (    -1          0          0      )
                  (     0          0          1      )

 cart.    s( 8) = (  0.0000000 -1.0000000  0.0000000 )
                  (  1.0000000  0.0000000  0.0000000 )
                  (  0.0000000  0.0000000  1.0000000 )


      isym =  9     inversion                                    

 cryst.   s( 9) = (    -1          0          0      )
                  (     0         -1          0      )
                  (     0          0         -1      )

 cart.    s( 9) = ( -1.0000000  0.0000000  0.0000000 )
                  (  0.0000000 -1.0000000  0.0000000 )
                  (  0.0000000  0.0000000 -1.0000000 )


      isym = 10     inv. 180 deg rotation - cart. axis [0,0,1]   

 cryst.   s(10) = (     1          0          0      )
                  (     0          1          0      )
                  (     0          0         -1      )

 cart.    s(10) = (  1.0000000  0.0000000  0.0000000 )
                  (  0.0000000  1.0000000  0.0000000 )
                  (  0.0000000  0.0000000 -1.0000000 )


      isym = 11     inv. 180 deg rotation - cart. axis [0,1,0]   

 cryst.   s(11) = (     1          0          0      )
                  (     0         -1          0      )
                  (     0          0          1      )

 cart.    s(11) = (  1.0000000  0.0000000  0.0000000 )
                  (  0.0000000 -1.0000000  0.0000000 )
                  (  0.0000000  0.0000000  1.0000000 )


      isym = 12     inv. 180 deg rotation - cart. axis [1,0,0]   

 cryst.   s(12) = (    -1          0          0      )
                  (     0          1          0      )
                  (     0          0          1      )

 cart.    s(12) = ( -1.0000000  0.0000000  0.0000000 )
                  (  0.0000000  1.0000000  0.0000000 )
                  (  0.0000000  0.0000000  1.0000000 )


      isym = 13     inv. 180 deg rotation - cart. axis [1,1,0]   

 cryst.   s(13) = (     0         -1          0      )
                  (    -1          0          0      )
                  (     0          0          1      )

 cart.    s(13) = (  0.0000000 -1.0000000  0.0000000 )
                  ( -1.0000000  0.0000000  0.0000000 )
                  (  0.0000000  0.0000000  1.0000000 )


      isym = 14     inv. 180 deg rotation - cart. axis [1,-1,0]  

 cryst.   s(14) = (     0          1          0      )
                  (     1          0          0      )
                  (     0          0          1      )

 cart.    s(14) = (  0.0000000  1.0000000  0.0000000 )
                  (  1.0000000  0.0000000  0.0000000 )
                  (  0.0000000  0.0000000  1.0000000 )


      isym = 15     inv.  90 deg rotation - cart. axis [0,0,-1]  

 cryst.   s(15) = (     0          1          0      )
                  (    -1          0          0      )
                  (     0          0         -1      )

 cart.    s(15) = (  0.0000000 -1.0000000  0.0000000 )
                  (  1.0000000  0.0000000  0.0000000 )
                  (  0.0000000  0.0000000 -1.0000000 )


      isym = 16     inv.  90 deg rotation - cart. axis [0,0,1]   

 cryst.   s(16) = (     0         -1          0      )
                  (     1          0          0      )
                  (     0          0         -1      )

 cart.    s(16) = (  0.0000000  1.0000000  0.0000000 )
                  ( -1.0000000  0.0000000  0.0000000 )
                  (  0.0000000  0.0000000 -1.0000000 )


     point group D_4h(4/mmm)
     there are 10 classes
     the character table:

       E     2C4   C2    2C2'  2C2'' i     2S4   s_h   2s_v  2s_d 
A_1g   1.00  1.00  1.00  1.00  1.00  1.00  1.00  1.00  1.00  1.00
A_2g   1.00  1.00  1.00 -1.00 -1.00  1.00  1.00  1.00 -1.00 -1.00
B_1g   1.00 -1.00  1.00  1.00 -1.00  1.00 -1.00  1.00  1.00 -1.00
B_2g   1.00 -1.00  1.00 -1.00  1.00  1.00 -1.00  1.00 -1.00  1.00
E_g    2.00  0.00 -2.00  0.00  0.00  2.00  0.00 -2.00  0.00  0.00
A_1u   1.00  1.00  1.00  1.00  1.00 -1.00 -1.00 -1.00 -1.00 -1.00
A_2u   1.00  1.00  1.00 -1.00 -1.00 -1.00 -1.00 -1.00  1.00  1.00
B_1u   1.00 -1.00  1.00  1.00 -1.00 -1.00  1.00 -1.00 -1.00  1.00
B_2u   1.00 -1.00  1.00 -1.00  1.00 -1.00  1.00 -1.00  1.00 -1.00
E_u    2.00  0.00 -2.00  0.00  0.00 -2.00  0.00  2.00  0.00  0.00

     the symmetry operations in each class and the name of the first element:

     E        1
          identity                                               
     2C4      7    8
           90 deg rotation - cart. axis [0,0,-1]                 
     C2       2
          180 deg rotation - cart. axis [0,0,1]                  
     2C2'     3    4
          180 deg rotation - cart. axis [0,1,0]                  
     2C2''    5    6
          180 deg rotation - cart. axis [1,1,0]                  
     i        9
          inversion                                              
     2S4     15   16
          inv.  90 deg rotation - cart. axis [0,0,-1]            
     s_h     10
          inv. 180 deg rotation - cart. axis [0,0,1]             
     2s_v    11   12
          inv. 180 deg rotation - cart. axis [0,1,0]             
     2s_d    13   14
          inv. 180 deg rotation - cart. axis [1,1,0]             

   Cartesian axes

     site n.     atom                  positions (alat units)
         1        Y      tau(   1) = (   0.2500000   0.2500000   0.7624455  )
         2        Y      tau(   2) = (   0.2500000   0.7500000   0.7624455  )
         3        Y      tau(   3) = (   0.7499999   0.2500000   0.7624455  )
         4        Y      tau(   4) = (   0.7500000   0.7500000   0.7624455  )
         5        Ba     tau(   5) = (   0.2500000   0.2500000   0.2966571  )
         6        Ba     tau(   6) = (   0.2500000   0.2500000   1.2282339  )
         7        Ba     tau(   7) = (   0.2500000   0.7500000   0.2966571  )
         8        Ba     tau(   8) = (   0.2500000   0.7500000   1.2282339  )
         9        Ba     tau(   9) = (   0.7500000   0.2500000   0.2966571  )
        10        Ba     tau(  10) = (   0.7500000   0.2500000   1.2282339  )
        11        Ba     tau(  11) = (   0.7500000   0.7500000   0.2966571  )
        12        Ba     tau(  12) = (   0.7500000   0.7500000   1.2282339  )
        13        Cu     tau(  13) = (   0.0000000   0.0000000   0.0000000  )
        14        Cu1    tau(  14) = (   0.0000000   0.0000000   0.5526369  )
        15        Cu1    tau(  15) = (   0.0000000   0.0000000   0.9722541  )
        16        Cu     tau(  16) = (   0.0000000   0.5000000   0.0000000  )
        17        Cu2    tau(  17) = (   0.0000000   0.5000000   0.5526369  )
        18        Cu2    tau(  18) = (   0.0000000   0.5000000   0.9722541  )
        19        Cu     tau(  19) = (   0.5000000   0.0000000   0.0000000  )
        20        Cu2    tau(  20) = (   0.5000000   0.0000000   0.5526369  )
        21        Cu2    tau(  21) = (   0.5000000   0.0000000   0.9722541  )
        22        Cu     tau(  22) = (   0.5000000   0.5000000   0.0000000  )
        23        Cu1    tau(  23) = (   0.5000000   0.5000000   0.5526369  )
        24        Cu1    tau(  24) = (   0.5000000   0.5000000   0.9722541  )
        25        O      tau(  25) = (   0.0000000   0.0000000   0.2314064  )
        26        O      tau(  26) = (   0.0000000   0.0000000   1.2934846  )
        27        O      tau(  27) = (   0.5000000   0.0000000   0.2314064  )
        28        O      tau(  28) = (   0.5000000   0.0000000   1.2934846  )
        29        O      tau(  29) = (   0.0000000   0.5000000   0.2314064  )
        30        O      tau(  30) = (   0.0000000   0.5000000   1.2934846  )
        31        O      tau(  31) = (   0.5000000   0.5000000   0.2314064  )
        32        O      tau(  32) = (   0.5000000   0.5000000   1.2934846  )
        33        O      tau(  33) = (   0.2500000   0.0000000   0.5769788  )
        34        O      tau(  34) = (   0.2500000   0.0000000   0.9479122  )
        35        O      tau(  35) = (   0.2500000   0.5000000   0.5769788  )
        36        O      tau(  36) = (   0.2500000   0.5000000   0.9479122  )
        37        O      tau(  37) = (   0.7500000   0.0000000   0.5769788  )
        38        O      tau(  38) = (   0.7500000   0.0000000   0.9479122  )
        39        O      tau(  39) = (   0.7500000   0.5000000   0.5769788  )
        40        O      tau(  40) = (   0.7500000   0.5000000   0.9479122  )
        41        O      tau(  41) = (   0.0000000   0.2500000   0.5769788  )
        42        O      tau(  42) = (   0.0000000   0.2500000   0.9479122  )
        43        O      tau(  43) = (   0.5000000   0.2500000   0.5769788  )
        44        O      tau(  44) = (   0.5000000   0.2500000   0.9479122  )
        45        O      tau(  45) = (   0.0000000   0.7500000   0.5769788  )
        46        O      tau(  46) = (   0.0000000   0.7500000   0.9479122  )
        47        O      tau(  47) = (   0.5000000   0.7500000   0.5769788  )
        48        O      tau(  48) = (   0.5000000   0.7500000   0.9479122  )

   Crystallographic axes

     site n.     atom                  positions (cryst. coord.)
         1        Y      tau(   1) = (  0.2500000  0.2500000  0.5000000  )
         2        Y      tau(   2) = (  0.2500000  0.7500000  0.5000000  )
         3        Y      tau(   3) = (  0.7499999  0.2500000  0.5000000  )
         4        Y      tau(   4) = (  0.7500000  0.7500000  0.5000000  )
         5        Ba     tau(   5) = (  0.2500000  0.2500000  0.1945431  )
         6        Ba     tau(   6) = (  0.2500000  0.2500000  0.8054569  )
         7        Ba     tau(   7) = (  0.2500000  0.7500000  0.1945431  )
         8        Ba     tau(   8) = (  0.2500000  0.7500000  0.8054569  )
         9        Ba     tau(   9) = (  0.7500000  0.2500000  0.1945431  )
        10        Ba     tau(  10) = (  0.7500000  0.2500000  0.8054569  )
        11        Ba     tau(  11) = (  0.7500000  0.7500000  0.1945431  )
        12        Ba     tau(  12) = (  0.7500000  0.7500000  0.8054569  )
        13        Cu     tau(  13) = (  0.0000000  0.0000000  0.0000000  )
        14        Cu1    tau(  14) = (  0.0000000  0.0000000  0.3624108  )
        15        Cu1    tau(  15) = (  0.0000000  0.0000000  0.6375892  )
        16        Cu     tau(  16) = (  0.0000000  0.5000000  0.0000000  )
        17        Cu2    tau(  17) = (  0.0000000  0.5000000  0.3624108  )
        18        Cu2    tau(  18) = (  0.0000000  0.5000000  0.6375892  )
        19        Cu     tau(  19) = (  0.5000000  0.0000000  0.0000000  )
        20        Cu2    tau(  20) = (  0.5000000  0.0000000  0.3624108  )
        21        Cu2    tau(  21) = (  0.5000000  0.0000000  0.6375892  )
        22        Cu     tau(  22) = (  0.5000000  0.5000000  0.0000000  )
        23        Cu1    tau(  23) = (  0.5000000  0.5000000  0.3624108  )
        24        Cu1    tau(  24) = (  0.5000000  0.5000000  0.6375892  )
        25        O      tau(  25) = (  0.0000000  0.0000000  0.1517528  )
        26        O      tau(  26) = (  0.0000000  0.0000000  0.8482472  )
        27        O      tau(  27) = (  0.5000000  0.0000000  0.1517528  )
        28        O      tau(  28) = (  0.5000000  0.0000000  0.8482472  )
        29        O      tau(  29) = (  0.0000000  0.5000000  0.1517528  )
        30        O      tau(  30) = (  0.0000000  0.5000000  0.8482472  )
        31        O      tau(  31) = (  0.5000000  0.5000000  0.1517528  )
        32        O      tau(  32) = (  0.5000000  0.5000000  0.8482472  )
        33        O      tau(  33) = (  0.2500000  0.0000000  0.3783738  )
        34        O      tau(  34) = (  0.2500000  0.0000000  0.6216262  )
        35        O      tau(  35) = (  0.2500000  0.5000000  0.3783738  )
        36        O      tau(  36) = (  0.2500000  0.5000000  0.6216262  )
        37        O      tau(  37) = (  0.7500000  0.0000000  0.3783738  )
        38        O      tau(  38) = (  0.7500000  0.0000000  0.6216262  )
        39        O      tau(  39) = (  0.7500000  0.5000000  0.3783738  )
        40        O      tau(  40) = (  0.7500000  0.5000000  0.6216262  )
        41        O      tau(  41) = (  0.0000000  0.2500000  0.3783738  )
        42        O      tau(  42) = (  0.0000000  0.2500000  0.6216262  )
        43        O      tau(  43) = (  0.5000000  0.2500000  0.3783738  )
        44        O      tau(  44) = (  0.5000000  0.2500000  0.6216262  )
        45        O      tau(  45) = (  0.0000000  0.7500000  0.3783738  )
        46        O      tau(  46) = (  0.0000000  0.7500000  0.6216262  )
        47        O      tau(  47) = (  0.5000000  0.7500000  0.3783738  )
        48        O      tau(  48) = (  0.5000000  0.7500000  0.6216262  )

     number of k points=     2  Methfessel-Paxton smearing, width (Ry)=  0.0100
                       cart. coord. in units 2pi/alat
        k(    1) = (   0.0000000   0.0000000   0.0000000), wk =   0.5000000
        k(    2) = (   0.0000000   0.0000000  -0.3278923), wk =   0.5000000

                       cryst. coord.
        k(    1) = (   0.0000000   0.0000000   0.0000000), wk =   0.5000000
        k(    2) = (   0.0000000   0.0000000  -0.5000000), wk =   0.5000000

     Dense  grid:   954065 G-vectors     FFT dimensions: ( 108, 108, 162)

     Smooth grid:   282619 G-vectors     FFT dimensions: (  72,  72, 108)

     Dynamical RAM for                 wfc:      40.16 MB

     Dynamical RAM for     wfc (w. buffer):     200.82 MB

     Dynamical RAM for             U proj.:       5.39 MB

     Dynamical RAM for  U proj. (w. buff.):      26.96 MB

     Dynamical RAM for           str. fact:      21.84 MB

     Dynamical RAM for           local pot:       0.00 MB

     Dynamical RAM for          nlocal pot:     107.82 MB

     Dynamical RAM for                qrad:      20.88 MB

     Dynamical RAM for          rho,v,vnew:      43.73 MB

     Dynamical RAM for               rhoin:      14.58 MB

     Dynamical RAM for            rho*nmix:     116.46 MB

     Dynamical RAM for           G-vectors:      14.19 MB

     Dynamical RAM for          h,s,v(r/c):       4.07 MB

     Dynamical RAM for          <psi|beta>:       3.64 MB

     Dynamical RAM for                 psi:      80.33 MB

     Dynamical RAM for                hpsi:      80.33 MB

     Dynamical RAM for                spsi:      80.33 MB

     Dynamical RAM for      wfcinit/wfcrot:     113.79 MB

     Dynamical RAM for           addusdens:    1372.08 MB

     Estimated static dynamical RAM per process >     498.18 MB

     Estimated max dynamical RAM per process >       1.94 GB

     Estimated total dynamical RAM >       7.76 GB

     Check: negative core charge=   -0.000002
     Generating pointlists ...
     new r_m :   0.1284 (alat units)  1.8421 (a.u.) for type    1
     new r_m :   0.1483 (alat units)  2.1276 (a.u.) for type    2
     new r_m :   0.0955 (alat units)  1.3694 (a.u.) for type    3
     new r_m :   0.1036 (alat units)  1.4864 (a.u.) for type    4
     new r_m :   0.1036 (alat units)  1.4864 (a.u.) for type    5
     new r_m :   0.0955 (alat units)  1.3694 (a.u.) for type    6

     Initial potential from superposition of free atoms

     starting charge     483.8621, renormalised to     496.0000

     negative rho (up, down):  3.865E-01 3.865E-01

     HUBBARD ENERGY =    0.8820  (Ry)

     STARTING HUBBARD OCCUPATIONS:

     =================== HUBBARD OCCUPATIONS ===================
     ------------------------ ATOM   14 ------------------------
     Tr[ns( 14)] (up, down, total) =   5.00000  3.00000  8.00000
     Atomic magnetic moment for atom  14 =   2.00000
     SPIN  1
     eigenvalues:
       1.000  1.000  1.000  1.000  1.000
     eigenvectors (columns):
       1.000  0.000  0.000  0.000  0.000
       0.000  1.000  0.000  0.000  0.000
       0.000  0.000  1.000  0.000  0.000
       0.000  0.000  0.000  1.000  0.000
       0.000  0.000  0.000  0.000  1.000
     occupation matrix ns (before diag.):
       1.000  0.000  0.000  0.000  0.000
       0.000  1.000  0.000  0.000  0.000
       0.000  0.000  1.000  0.000  0.000
       0.000  0.000  0.000  1.000  0.000
       0.000  0.000  0.000  0.000  1.000
     SPIN  2
     eigenvalues:
       0.600  0.600  0.600  0.600  0.600
     eigenvectors (columns):
       1.000  0.000  0.000  0.000  0.000
       0.000  1.000  0.000  0.000  0.000
       0.000  0.000  1.000  0.000  0.000
       0.000  0.000  0.000  1.000  0.000
       0.000  0.000  0.000  0.000  1.000
     occupation matrix ns (before diag.):
       0.600  0.000  0.000  0.000  0.000
       0.000  0.600  0.000  0.000  0.000
       0.000  0.000  0.600  0.000  0.000
       0.000  0.000  0.000  0.600  0.000
       0.000  0.000  0.000  0.000  0.600
     ------------------------ ATOM   15 ------------------------
     Tr[ns( 15)] (up, down, total) =   5.00000  3.00000  8.00000
     Atomic magnetic moment for atom  15 =   2.00000
     SPIN  1
     eigenvalues:
       1.000  1.000  1.000  1.000  1.000
     eigenvectors (columns):
       1.000  0.000  0.000  0.000  0.000
       0.000  1.000  0.000  0.000  0.000
       0.000  0.000  1.000  0.000  0.000
       0.000  0.000  0.000  1.000  0.000
       0.000  0.000  0.000  0.000  1.000
     occupation matrix ns (before diag.):
       1.000  0.000  0.000  0.000  0.000
       0.000  1.000  0.000  0.000  0.000
       0.000  0.000  1.000  0.000  0.000
       0.000  0.000  0.000  1.000  0.000
       0.000  0.000  0.000  0.000  1.000
     SPIN  2
     eigenvalues:
       0.600  0.600  0.600  0.600  0.600
     eigenvectors (columns):
       1.000  0.000  0.000  0.000  0.000
       0.000  1.000  0.000  0.000  0.000
       0.000  0.000  1.000  0.000  0.000
       0.000  0.000  0.000  1.000  0.000
       0.000  0.000  0.000  0.000  1.000
     occupation matrix ns (before diag.):
       0.600  0.000  0.000  0.000  0.000
       0.000  0.600  0.000  0.000  0.000
       0.000  0.000  0.600  0.000  0.000
       0.000  0.000  0.000  0.600  0.000
       0.000  0.000  0.000  0.000  0.600
     ------------------------ ATOM   17 ------------------------
     Tr[ns( 17)] (up, down, total) =   3.00000  5.00000  8.00000
     Atomic magnetic moment for atom  17 =  -2.00000
     SPIN  1
     eigenvalues:
       0.600  0.600  0.600  0.600  0.600
     eigenvectors (columns):
       1.000  0.000  0.000  0.000  0.000
       0.000  1.000  0.000  0.000  0.000
       0.000  0.000  1.000  0.000  0.000
       0.000  0.000  0.000  1.000  0.000
       0.000  0.000  0.000  0.000  1.000
     occupation matrix ns (before diag.):
       0.600  0.000  0.000  0.000  0.000
       0.000  0.600  0.000  0.000  0.000
       0.000  0.000  0.600  0.000  0.000
       0.000  0.000  0.000  0.600  0.000
       0.000  0.000  0.000  0.000  0.600
     SPIN  2
     eigenvalues:
       1.000  1.000  1.000  1.000  1.000
     eigenvectors (columns):
       1.000  0.000  0.000  0.000  0.000
       0.000  1.000  0.000  0.000  0.000
       0.000  0.000  1.000  0.000  0.000
       0.000  0.000  0.000  1.000  0.000
       0.000  0.000  0.000  0.000  1.000
     occupation matrix ns (before diag.):
       1.000  0.000  0.000  0.000  0.000
       0.000  1.000  0.000  0.000  0.000
       0.000  0.000  1.000  0.000  0.000
       0.000  0.000  0.000  1.000  0.000
       0.000  0.000  0.000  0.000  1.000
     ------------------------ ATOM   18 ------------------------
     Tr[ns( 18)] (up, down, total) =   3.00000  5.00000  8.00000
     Atomic magnetic moment for atom  18 =  -2.00000
     SPIN  1
     eigenvalues:
       0.600  0.600  0.600  0.600  0.600
     eigenvectors (columns):
       1.000  0.000  0.000  0.000  0.000
       0.000  1.000  0.000  0.000  0.000
       0.000  0.000  1.000  0.000  0.000
       0.000  0.000  0.000  1.000  0.000
       0.000  0.000  0.000  0.000  1.000
     occupation matrix ns (before diag.):
       0.600  0.000  0.000  0.000  0.000
       0.000  0.600  0.000  0.000  0.000
       0.000  0.000  0.600  0.000  0.000
       0.000  0.000  0.000  0.600  0.000
       0.000  0.000  0.000  0.000  0.600
     SPIN  2
     eigenvalues:
       1.000  1.000  1.000  1.000  1.000
     eigenvectors (columns):
       1.000  0.000  0.000  0.000  0.000
       0.000  1.000  0.000  0.000  0.000
       0.000  0.000  1.000  0.000  0.000
       0.000  0.000  0.000  1.000  0.000
       0.000  0.000  0.000  0.000  1.000
     occupation matrix ns (before diag.):
       1.000  0.000  0.000  0.000  0.000
       0.000  1.000  0.000  0.000  0.000
       0.000  0.000  1.000  0.000  0.000
       0.000  0.000  0.000  1.000  0.000
       0.000  0.000  0.000  0.000  1.000
     ------------------------ ATOM   20 ------------------------
     Tr[ns( 20)] (up, down, total) =   3.00000  5.00000  8.00000
     Atomic magnetic moment for atom  20 =  -2.00000
     SPIN  1
     eigenvalues:
       0.600  0.600  0.600  0.600  0.600
     eigenvectors (columns):
       1.000  0.000  0.000  0.000  0.000
       0.000  1.000  0.000  0.000  0.000
       0.000  0.000  1.000  0.000  0.000
       0.000  0.000  0.000  1.000  0.000
       0.000  0.000  0.000  0.000  1.000
     occupation matrix ns (before diag.):
       0.600  0.000  0.000  0.000  0.000
       0.000  0.600  0.000  0.000  0.000
       0.000  0.000  0.600  0.000  0.000
       0.000  0.000  0.000  0.600  0.000
       0.000  0.000  0.000  0.000  0.600
     SPIN  2
     eigenvalues:
       1.000  1.000  1.000  1.000  1.000
     eigenvectors (columns):
       1.000  0.000  0.000  0.000  0.000
       0.000  1.000  0.000  0.000  0.000
       0.000  0.000  1.000  0.000  0.000
       0.000  0.000  0.000  1.000  0.000
       0.000  0.000  0.000  0.000  1.000
     occupation matrix ns (before diag.):
       1.000  0.000  0.000  0.000  0.000
       0.000  1.000  0.000  0.000  0.000
       0.000  0.000  1.000  0.000  0.000
       0.000  0.000  0.000  1.000  0.000
       0.000  0.000  0.000  0.000  1.000
     ------------------------ ATOM   21 ------------------------
     Tr[ns( 21)] (up, down, total) =   3.00000  5.00000  8.00000
     Atomic magnetic moment for atom  21 =  -2.00000
     SPIN  1
     eigenvalues:
       0.600  0.600  0.600  0.600  0.600
     eigenvectors (columns):
       1.000  0.000  0.000  0.000  0.000
       0.000  1.000  0.000  0.000  0.000
       0.000  0.000  1.000  0.000  0.000
       0.000  0.000  0.000  1.000  0.000
       0.000  0.000  0.000  0.000  1.000
     occupation matrix ns (before diag.):
       0.600  0.000  0.000  0.000  0.000
       0.000  0.600  0.000  0.000  0.000
       0.000  0.000  0.600  0.000  0.000
       0.000  0.000  0.000  0.600  0.000
       0.000  0.000  0.000  0.000  0.600
     SPIN  2
     eigenvalues:
       1.000  1.000  1.000  1.000  1.000
     eigenvectors (columns):
       1.000  0.000  0.000  0.000  0.000
       0.000  1.000  0.000  0.000  0.000
       0.000  0.000  1.000  0.000  0.000
       0.000  0.000  0.000  1.000  0.000
       0.000  0.000  0.000  0.000  1.000
     occupation matrix ns (before diag.):
       1.000  0.000  0.000  0.000  0.000
       0.000  1.000  0.000  0.000  0.000
       0.000  0.000  1.000  0.000  0.000
       0.000  0.000  0.000  1.000  0.000
       0.000  0.000  0.000  0.000  1.000
     ------------------------ ATOM   23 ------------------------
     Tr[ns( 23)] (up, down, total) =   5.00000  3.00000  8.00000
     Atomic magnetic moment for atom  23 =   2.00000
     SPIN  1
     eigenvalues:
       1.000  1.000  1.000  1.000  1.000
     eigenvectors (columns):
       1.000  0.000  0.000  0.000  0.000
       0.000  1.000  0.000  0.000  0.000
       0.000  0.000  1.000  0.000  0.000
       0.000  0.000  0.000  1.000  0.000
       0.000  0.000  0.000  0.000  1.000
     occupation matrix ns (before diag.):
       1.000  0.000  0.000  0.000  0.000
       0.000  1.000  0.000  0.000  0.000
       0.000  0.000  1.000  0.000  0.000
       0.000  0.000  0.000  1.000  0.000
       0.000  0.000  0.000  0.000  1.000
     SPIN  2
     eigenvalues:
       0.600  0.600  0.600  0.600  0.600
     eigenvectors (columns):
       1.000  0.000  0.000  0.000  0.000
       0.000  1.000  0.000  0.000  0.000
       0.000  0.000  1.000  0.000  0.000
       0.000  0.000  0.000  1.000  0.000
       0.000  0.000  0.000  0.000  1.000
     occupation matrix ns (before diag.):
       0.600  0.000  0.000  0.000  0.000
       0.000  0.600  0.000  0.000  0.000
       0.000  0.000  0.600  0.000  0.000
       0.000  0.000  0.000  0.600  0.000
       0.000  0.000  0.000  0.000  0.600
     ------------------------ ATOM   24 ------------------------
     Tr[ns( 24)] (up, down, total) =   5.00000  3.00000  8.00000
     Atomic magnetic moment for atom  24 =   2.00000
     SPIN  1
     eigenvalues:
       1.000  1.000  1.000  1.000  1.000
     eigenvectors (columns):
       1.000  0.000  0.000  0.000  0.000
       0.000  1.000  0.000  0.000  0.000
       0.000  0.000  1.000  0.000  0.000
       0.000  0.000  0.000  1.000  0.000
       0.000  0.000  0.000  0.000  1.000
     occupation matrix ns (before diag.):
       1.000  0.000  0.000  0.000  0.000
       0.000  1.000  0.000  0.000  0.000
       0.000  0.000  1.000  0.000  0.000
       0.000  0.000  0.000  1.000  0.000
       0.000  0.000  0.000  0.000  1.000
     SPIN  2
     eigenvalues:
       0.600  0.600  0.600  0.600  0.600
     eigenvectors (columns):
       1.000  0.000  0.000  0.000  0.000
       0.000  1.000  0.000  0.000  0.000
       0.000  0.000  1.000  0.000  0.000
       0.000  0.000  0.000  1.000  0.000
       0.000  0.000  0.000  0.000  1.000
     occupation matrix ns (before diag.):
       0.600  0.000  0.000  0.000  0.000
       0.000  0.600  0.000  0.000  0.000
       0.000  0.000  0.600  0.000  0.000
       0.000  0.000  0.000  0.600  0.000
       0.000  0.000  0.000  0.000  0.600

     Number of occupied Hubbard levels =   64.0000

     Atomic wfc used for Hubbard projectors are orthogonalized

     Starting wfcs are  408 randomized atomic wfcs

     total cpu time spent up to now is       23.2 secs

     Self-consistent Calculation

     iteration #  1     ecut=    60.00 Ry     beta= 0.10
     Davidson diagonalization with overlap

---- Real-time Memory Report at c_bands before calling an iterative solver
          1555 MiB given to the printing process from OS
             0 MiB allocation reported by mallinfo(arena+hblkhd)
          4083 MiB available memory on the node where the printing process lives
------------------
     ethr =  1.00E-02,  avg # of iterations =  2.2

     =================== HUBBARD OCCUPATIONS ===================
     ------------------------ ATOM   14 ------------------------
     Tr[ns( 14)] (up, down, total) =   4.85329  4.12831  8.98160
     Atomic magnetic moment for atom  14 =   0.72499
     SPIN  1
     eigenvalues:
       0.942  0.954  0.984  0.984  0.989
     eigenvectors (columns):
      -0.000  1.000 -0.000 -0.000  0.000
      -0.000  0.000  0.348  0.938  0.000
      -0.000  0.000  0.938 -0.348  0.000
       1.000  0.000  0.000  0.000 -0.000
       0.000 -0.000 -0.000 -0.000  1.000
     occupation matrix ns (before diag.):
       0.954 -0.000 -0.000  0.000  0.000
      -0.000  0.984 -0.000  0.000  0.000
      -0.000 -0.000  0.984  0.000  0.000
       0.000  0.000  0.000  0.942 -0.000
       0.000  0.000  0.000 -0.000  0.989
     SPIN  2
     eigenvalues:
       0.320  0.892  0.968  0.968  0.979
     eigenvectors (columns):
      -0.000  1.000 -0.000 -0.000  0.000
      -0.000  0.000  0.337  0.941  0.000
      -0.000  0.000  0.941 -0.337  0.000
       1.000  0.000  0.000  0.000 -0.000
       0.000 -0.000 -0.000 -0.000  1.000
     occupation matrix ns (before diag.):
       0.892 -0.000 -0.000 -0.000  0.000
      -0.000  0.968 -0.000  0.000  0.000
      -0.000 -0.000  0.968  0.000  0.000
      -0.000  0.000  0.000  0.320 -0.000
       0.000  0.000  0.000 -0.000  0.979
     ------------------------ ATOM   15 ------------------------
     Tr[ns( 15)] (up, down, total) =   4.85329  4.12831  8.98160
     Atomic magnetic moment for atom  15 =   0.72499
     SPIN  1
     eigenvalues:
       0.942  0.954  0.984  0.984  0.989
     eigenvectors (columns):
      -0.000  1.000 -0.000 -0.000  0.000
      -0.000  0.000  0.339  0.941  0.000
      -0.000  0.000  0.941 -0.339  0.000
       1.000  0.000  0.000  0.000 -0.000
       0.000 -0.000 -0.000 -0.000  1.000
     occupation matrix ns (before diag.):
       0.954 -0.000 -0.000  0.000  0.000
      -0.000  0.984 -0.000  0.000  0.000
      -0.000 -0.000  0.984  0.000  0.000
       0.000  0.000  0.000  0.942 -0.000
       0.000  0.000  0.000 -0.000  0.989
     SPIN  2
     eigenvalues:
       0.320  0.892  0.968  0.968  0.979
     eigenvectors (columns):
      -0.000  1.000 -0.000 -0.000  0.000
      -0.000  0.000  0.324  0.946  0.000
      -0.000  0.000  0.946 -0.324  0.000
       1.000  0.000  0.000  0.000 -0.000
       0.000 -0.000 -0.000 -0.000  1.000
     occupation matrix ns (before diag.):
       0.892 -0.000 -0.000 -0.000  0.000
      -0.000  0.968 -0.000  0.000  0.000
      -0.000 -0.000  0.968  0.000  0.000
      -0.000  0.000  0.000  0.320 -0.000
       0.000  0.000  0.000 -0.000  0.979
     ------------------------ ATOM   17 ------------------------
     Tr[ns( 17)] (up, down, total) =   4.12831  4.85317  8.98148
     Atomic magnetic moment for atom  17 =  -0.72486
     SPIN  1
     eigenvalues:
       0.320  0.892  0.968  0.968  0.979
     eigenvectors (columns):
       0.000  1.000 -0.000 -0.000  0.000
      -0.000  0.000  1.000 -0.000  0.000
      -0.000  0.000  0.000  1.000  0.000
       1.000 -0.000  0.000  0.000 -0.000
       0.000 -0.000 -0.000 -0.000  1.000
     occupation matrix ns (before diag.):
       0.892 -0.000 -0.000 -0.000  0.000
      -0.000  0.968 -0.000  0.000  0.000
      -0.000 -0.000  0.968  0.000  0.000
      -0.000  0.000  0.000  0.320 -0.000
       0.000  0.000  0.000 -0.000  0.979
     SPIN  2
     eigenvalues:
       0.942  0.954  0.984  0.984  0.989
     eigenvectors (columns):
       0.001  1.000 -0.000 -0.000  0.000
      -0.000  0.000  1.000 -0.000  0.000
      -0.000  0.000  0.000  1.000  0.000
       1.000 -0.001  0.000  0.000 -0.000
       0.000 -0.000 -0.000 -0.000  1.000
     occupation matrix ns (before diag.):
       0.954 -0.000 -0.000 -0.000  0.000
      -0.000  0.984 -0.000  0.000  0.000
      -0.000 -0.000  0.984  0.000  0.000
      -0.000  0.000  0.000  0.942 -0.000
       0.000  0.000  0.000 -0.000  0.989
     ------------------------ ATOM   18 ------------------------
     Tr[ns( 18)] (up, down, total) =   4.12831  4.85317  8.98148
     Atomic magnetic moment for atom  18 =  -0.72486
     SPIN  1
     eigenvalues:
       0.320  0.892  0.968  0.968  0.979
     eigenvectors (columns):
       0.000  1.000 -0.000 -0.000  0.000
      -0.000  0.000  1.000 -0.000  0.000
      -0.000  0.000  0.000  1.000  0.000
       1.000 -0.000  0.000  0.000 -0.000
       0.000 -0.000 -0.000 -0.000  1.000
     occupation matrix ns (before diag.):
       0.892 -0.000 -0.000 -0.000  0.000
      -0.000  0.968 -0.000  0.000  0.000
      -0.000 -0.000  0.968  0.000  0.000
      -0.000  0.000  0.000  0.320 -0.000
       0.000  0.000  0.000 -0.000  0.979
     SPIN  2
     eigenvalues:
       0.942  0.954  0.984  0.984  0.989
     eigenvectors (columns):
       0.001  1.000 -0.000 -0.000  0.000
      -0.000  0.000  1.000 -0.000  0.000
      -0.000  0.000  0.000  1.000  0.000
       1.000 -0.001  0.000  0.000 -0.000
       0.000 -0.000 -0.000 -0.000  1.000
     occupation matrix ns (before diag.):
       0.954 -0.000 -0.000 -0.000  0.000
      -0.000  0.984 -0.000  0.000  0.000
      -0.000 -0.000  0.984  0.000  0.000
      -0.000  0.000  0.000  0.942 -0.000
       0.000  0.000  0.000 -0.000  0.989
     ------------------------ ATOM   20 ------------------------
     Tr[ns( 20)] (up, down, total) =   4.12831  4.85317  8.98148
     Atomic magnetic moment for atom  20 =  -0.72486
     SPIN  1
     eigenvalues:
       0.320  0.892  0.968  0.968  0.979
     eigenvectors (columns):
      -0.000  1.000 -0.000 -0.000  0.000
      -0.000  0.000  0.000  1.000  0.000
      -0.000  0.000  1.000 -0.000  0.000
       1.000  0.000  0.000  0.000 -0.000
       0.000 -0.000 -0.000 -0.000  1.000
     occupation matrix ns (before diag.):
       0.892 -0.000 -0.000  0.000  0.000
      -0.000  0.968 -0.000  0.000  0.000
      -0.000 -0.000  0.968  0.000  0.000
       0.000  0.000  0.000  0.320 -0.000
       0.000  0.000  0.000 -0.000  0.979
     SPIN  2
     eigenvalues:
       0.942  0.954  0.984  0.984  0.989
     eigenvectors (columns):
      -0.001  1.000 -0.000 -0.000  0.000
      -0.000  0.000  0.000  1.000  0.000
      -0.000  0.000  1.000 -0.000  0.000
       1.000  0.001  0.000  0.000 -0.000
       0.000 -0.000 -0.000 -0.000  1.000
     occupation matrix ns (before diag.):
       0.954 -0.000 -0.000  0.000  0.000
      -0.000  0.984 -0.000  0.000  0.000
      -0.000 -0.000  0.984  0.000  0.000
       0.000  0.000  0.000  0.942 -0.000
       0.000  0.000  0.000 -0.000  0.989
     ------------------------ ATOM   21 ------------------------
     Tr[ns( 21)] (up, down, total) =   4.12831  4.85317  8.98148
     Atomic magnetic moment for atom  21 =  -0.72486
     SPIN  1
     eigenvalues:
       0.320  0.892  0.968  0.968  0.979
     eigenvectors (columns):
      -0.000  1.000 -0.000 -0.000  0.000
      -0.000  0.000  0.000  1.000  0.000
      -0.000  0.000  1.000 -0.000  0.000
       1.000  0.000  0.000  0.000 -0.000
       0.000 -0.000 -0.000 -0.000  1.000
     occupation matrix ns (before diag.):
       0.892 -0.000 -0.000  0.000  0.000
      -0.000  0.968 -0.000  0.000  0.000
      -0.000 -0.000  0.968  0.000  0.000
       0.000  0.000  0.000  0.320 -0.000
       0.000  0.000  0.000 -0.000  0.979
     SPIN  2
     eigenvalues:
       0.942  0.954  0.984  0.984  0.989
     eigenvectors (columns):
      -0.001  1.000 -0.000 -0.000  0.000
      -0.000  0.000  0.000  1.000  0.000
      -0.000  0.000  1.000 -0.000  0.000
       1.000  0.001  0.000  0.000 -0.000
       0.000 -0.000 -0.000 -0.000  1.000
     occupation matrix ns (before diag.):
       0.954 -0.000 -0.000  0.000  0.000
      -0.000  0.984 -0.000  0.000  0.000
      -0.000 -0.000  0.984  0.000  0.000
       0.000  0.000  0.000  0.942 -0.000
       0.000  0.000  0.000 -0.000  0.989
     ------------------------ ATOM   23 ------------------------
     Tr[ns( 23)] (up, down, total) =   4.85326  4.12832  8.98158
     Atomic magnetic moment for atom  23 =   0.72494
     SPIN  1
     eigenvalues:
       0.942  0.954  0.984  0.984  0.989
     eigenvectors (columns):
      -0.000  1.000 -0.000 -0.000  0.000
      -0.000  0.000  0.324  0.946  0.000
      -0.000  0.000  0.946 -0.324  0.000
       1.000  0.000  0.000  0.000 -0.000
       0.000 -0.000 -0.000 -0.000  1.000
     occupation matrix ns (before diag.):
       0.954 -0.000 -0.000  0.000  0.000
      -0.000  0.984 -0.000  0.000  0.000
      -0.000 -0.000  0.984  0.000  0.000
       0.000  0.000  0.000  0.942 -0.000
       0.000  0.000  0.000 -0.000  0.989
     SPIN  2
     eigenvalues:
       0.320  0.892  0.968  0.968  0.979
     eigenvectors (columns):
      -0.000  1.000 -0.000 -0.000  0.000
      -0.000  0.000  0.346  0.938  0.000
      -0.000  0.000  0.938 -0.346  0.000
       1.000  0.000  0.000  0.000 -0.000
       0.000 -0.000 -0.000 -0.000  1.000
     occupation matrix ns (before diag.):
       0.892 -0.000 -0.000 -0.000  0.000
      -0.000  0.968 -0.000  0.000  0.000
      -0.000 -0.000  0.968  0.000  0.000
      -0.000  0.000  0.000  0.320 -0.000
       0.000  0.000  0.000 -0.000  0.979
     ------------------------ ATOM   24 ------------------------
     Tr[ns( 24)] (up, down, total) =   4.85326  4.12832  8.98158
     Atomic magnetic moment for atom  24 =   0.72494
     SPIN  1
     eigenvalues:
       0.942  0.954  0.984  0.984  0.989
     eigenvectors (columns):
      -0.000  1.000 -0.000 -0.000  0.000
      -0.000  0.000  0.342  0.940  0.000
      -0.000  0.000  0.940 -0.342  0.000
       1.000  0.000  0.000  0.000 -0.000
       0.000 -0.000 -0.000 -0.000  1.000
     occupation matrix ns (before diag.):
       0.954 -0.000 -0.000  0.000  0.000
      -0.000  0.984 -0.000  0.000  0.000
      -0.000 -0.000  0.984  0.000  0.000
       0.000  0.000  0.000  0.942 -0.000
       0.000  0.000  0.000 -0.000  0.989
     SPIN  2
     eigenvalues:
       0.320  0.892  0.968  0.968  0.979
     eigenvectors (columns):
       0.000  1.000 -0.000 -0.000  0.000
      -0.000  0.000  0.332  0.943  0.000
      -0.000  0.000  0.943 -0.332  0.000
       1.000 -0.000  0.000  0.000 -0.000
       0.000 -0.000 -0.000 -0.000  1.000
     occupation matrix ns (before diag.):
       0.892 -0.000 -0.000 -0.000  0.000
      -0.000  0.968 -0.000  0.000  0.000
      -0.000 -0.000  0.968  0.000  0.000
      -0.000  0.000  0.000  0.320 -0.000
       0.000  0.000  0.000 -0.000  0.979

     Number of occupied Hubbard levels =   71.8523

     negative rho (up, down):  3.820E-01 3.820E-01

     HUBBARD ENERGY =    0.3940  (Ry)

     total cpu time spent up to now is       66.8 secs

     total energy              =   -6557.21343495 Ry
     estimated scf accuracy    <       8.04019219 Ry

     total magnetization       =     0.00 Bohr mag/cell
     absolute magnetization    =     7.45 Bohr mag/cell

     iteration #  2     ecut=    60.00 Ry     beta= 0.10
     Davidson diagonalization with overlap

---- Real-time Memory Report at c_bands before calling an iterative solver
          2022 MiB given to the printing process from OS
             0 MiB allocation reported by mallinfo(arena+hblkhd)
          5517 MiB available memory on the node where the printing process lives
------------------
     ethr =  1.62E-03,  avg # of iterations =  2.0

     =================== HUBBARD OCCUPATIONS ===================
     ------------------------ ATOM   14 ------------------------
     Tr[ns( 14)] (up, down, total) =   4.86309  4.18350  9.04659
     Atomic magnetic moment for atom  14 =   0.67959
     SPIN  1
     eigenvalues:
       0.949  0.959  0.984  0.984  0.988
     eigenvectors (columns):
      -0.000  1.000 -0.000 -0.000  0.000
      -0.000  0.000  0.321  0.947  0.000
      -0.000  0.000  0.947 -0.321  0.000
       1.000  0.000  0.000  0.000 -0.000
       0.000 -0.000 -0.000 -0.000  1.000
     occupation matrix ns (before diag.):
       0.959 -0.000 -0.000  0.000  0.000
      -0.000  0.984 -0.000  0.000  0.000
      -0.000 -0.000  0.984  0.000  0.000
       0.000  0.000  0.000  0.949 -0.000
       0.000  0.000  0.000 -0.000  0.988
     SPIN  2
     eigenvalues:
       0.330  0.930  0.972  0.972  0.979
     eigenvectors (columns):
      -0.000 -1.000 -0.000 -0.000  0.000
       0.000 -0.000  0.377  0.926  0.000
       0.000 -0.000  0.926 -0.377  0.000
      -1.000  0.000  0.000  0.000 -0.000
      -0.000  0.000 -0.000 -0.000  1.000
     occupation matrix ns (before diag.):
       0.930 -0.000 -0.000 -0.000  0.000
      -0.000  0.972 -0.000  0.000  0.000
      -0.000 -0.000  0.972  0.000  0.000
      -0.000  0.000  0.000  0.330 -0.000
       0.000  0.000  0.000 -0.000  0.979
     ------------------------ ATOM   15 ------------------------
     Tr[ns( 15)] (up, down, total) =   4.86309  4.18350  9.04659
     Atomic magnetic moment for atom  15 =   0.67959
     SPIN  1
     eigenvalues:
       0.949  0.959  0.984  0.984  0.988
     eigenvectors (columns):
      -0.000  1.000 -0.000 -0.000  0.000
      -0.000  0.000  0.350  0.937  0.000
      -0.000  0.000  0.937 -0.350  0.000
       1.000  0.000  0.000  0.000 -0.000
       0.000 -0.000 -0.000 -0.000  1.000
     occupation matrix ns (before diag.):
       0.959 -0.000 -0.000  0.000  0.000
      -0.000  0.984 -0.000  0.000  0.000
      -0.000 -0.000  0.984  0.000  0.000
       0.000  0.000  0.000  0.949 -0.000
       0.000  0.000  0.000 -0.000  0.988
     SPIN  2
     eigenvalues:
       0.330  0.930  0.972  0.972  0.979
     eigenvectors (columns):
       0.000 -1.000 -0.000 -0.000  0.000
       0.000 -0.000  0.311  0.951  0.000
       0.000 -0.000  0.951 -0.311  0.000
      -1.000 -0.000  0.000  0.000 -0.000
      -0.000  0.000 -0.000 -0.000  1.000
     occupation matrix ns (before diag.):
       0.930 -0.000 -0.000 -0.000  0.000
      -0.000  0.972 -0.000  0.000  0.000
      -0.000 -0.000  0.972  0.000  0.000
      -0.000  0.000  0.000  0.330 -0.000
       0.000  0.000  0.000 -0.000  0.979
     ------------------------ ATOM   17 ------------------------
     Tr[ns( 17)] (up, down, total) =   4.18352  4.86310  9.04662
     Atomic magnetic moment for atom  17 =  -0.67957
     SPIN  1
     eigenvalues:
       0.330  0.930  0.972  0.972  0.979
     eigenvectors (columns):
      -0.000 -1.000 -0.000 -0.000  0.000
       0.000 -0.000  1.000 -0.000  0.000
       0.000 -0.000  0.000  1.000  0.000
      -1.000  0.000  0.000  0.000 -0.000
      -0.000  0.000 -0.000 -0.000  1.000
     occupation matrix ns (before diag.):
       0.930 -0.000 -0.000 -0.000  0.000
      -0.000  0.972 -0.000  0.000  0.000
      -0.000 -0.000  0.972  0.000  0.000
      -0.000  0.000  0.000  0.330 -0.000
       0.000  0.000  0.000 -0.000  0.979
     SPIN  2
     eigenvalues:
       0.949  0.959  0.984  0.984  0.988
     eigenvectors (columns):
       0.000  1.000 -0.000 -0.000  0.000
      -0.000  0.000  1.000 -0.000  0.000
      -0.000  0.000  0.000  1.000  0.000
       1.000 -0.000  0.000  0.000 -0.000
       0.000 -0.000 -0.000 -0.000  1.000
     occupation matrix ns (before diag.):
       0.959 -0.000 -0.000 -0.000  0.000
      -0.000  0.984 -0.000  0.000  0.000
      -0.000 -0.000  0.984  0.000  0.000
      -0.000  0.000  0.000  0.949 -0.000
       0.000  0.000  0.000 -0.000  0.988
     ------------------------ ATOM   18 ------------------------
     Tr[ns( 18)] (up, down, total) =   4.18352  4.86310  9.04662
     Atomic magnetic moment for atom  18 =  -0.67957
     SPIN  1
     eigenvalues:
       0.330  0.930  0.972  0.972  0.979
     eigenvectors (columns):
      -0.000 -1.000 -0.000 -0.000  0.000
       0.000 -0.000  1.000 -0.000  0.000
       0.000 -0.000  0.000  1.000  0.000
      -1.000  0.000  0.000  0.000 -0.000
      -0.000  0.000 -0.000 -0.000  1.000
     occupation matrix ns (before diag.):
       0.930 -0.000 -0.000 -0.000  0.000
      -0.000  0.972 -0.000  0.000  0.000
      -0.000 -0.000  0.972  0.000  0.000
      -0.000  0.000  0.000  0.330 -0.000
       0.000  0.000  0.000 -0.000  0.979
     SPIN  2
     eigenvalues:
       0.949  0.959  0.984  0.984  0.988
     eigenvectors (columns):
       0.000  1.000 -0.000 -0.000  0.000
      -0.000  0.000  1.000 -0.000  0.000
      -0.000  0.000  0.000  1.000  0.000
       1.000 -0.000  0.000  0.000 -0.000
       0.000 -0.000 -0.000 -0.000  1.000
     occupation matrix ns (before diag.):
       0.959 -0.000 -0.000 -0.000  0.000
      -0.000  0.984 -0.000  0.000  0.000
      -0.000 -0.000  0.984  0.000  0.000
      -0.000  0.000  0.000  0.949 -0.000
       0.000  0.000  0.000 -0.000  0.988
     ------------------------ ATOM   20 ------------------------
     Tr[ns( 20)] (up, down, total) =   4.18352  4.86310  9.04662
     Atomic magnetic moment for atom  20 =  -0.67957
     SPIN  1
     eigenvalues:
       0.330  0.930  0.972  0.972  0.979
     eigenvectors (columns):
       0.000 -1.000 -0.000 -0.000  0.000
       0.000 -0.000  0.000  1.000  0.000
       0.000 -0.000  1.000 -0.000  0.000
      -1.000 -0.000  0.000  0.000 -0.000
      -0.000  0.000 -0.000 -0.000  1.000
     occupation matrix ns (before diag.):
       0.930 -0.000 -0.000  0.000  0.000
      -0.000  0.972 -0.000  0.000  0.000
      -0.000 -0.000  0.972  0.000  0.000
       0.000  0.000  0.000  0.330 -0.000
       0.000  0.000  0.000 -0.000  0.979
     SPIN  2
     eigenvalues:
       0.949  0.959  0.984  0.984  0.988
     eigenvectors (columns):
      -0.000  1.000 -0.000 -0.000  0.000
      -0.000  0.000  0.000  1.000  0.000
      -0.000  0.000  1.000 -0.000  0.000
       1.000  0.000  0.000  0.000 -0.000
       0.000 -0.000 -0.000 -0.000  1.000
     occupation matrix ns (before diag.):
       0.959 -0.000 -0.000  0.000  0.000
      -0.000  0.984 -0.000  0.000  0.000
      -0.000 -0.000  0.984  0.000  0.000
       0.000  0.000  0.000  0.949 -0.000
       0.000  0.000  0.000 -0.000  0.988
     ------------------------ ATOM   21 ------------------------
     Tr[ns( 21)] (up, down, total) =   4.18352  4.86310  9.04662
     Atomic magnetic moment for atom  21 =  -0.67957
     SPIN  1
     eigenvalues:
       0.330  0.930  0.972  0.972  0.979
     eigenvectors (columns):
       0.000 -1.000 -0.000 -0.000  0.000
       0.000 -0.000  0.000  1.000  0.000
       0.000 -0.000  1.000 -0.000  0.000
      -1.000 -0.000  0.000  0.000 -0.000
      -0.000  0.000 -0.000 -0.000  1.000
     occupation matrix ns (before diag.):
       0.930 -0.000 -0.000  0.000  0.000
      -0.000  0.972 -0.000  0.000  0.000
      -0.000 -0.000  0.972  0.000  0.000
       0.000  0.000  0.000  0.330 -0.000
       0.000  0.000  0.000 -0.000  0.979
     SPIN  2
     eigenvalues:
       0.949  0.959  0.984  0.984  0.988
     eigenvectors (columns):
      -0.000  1.000 -0.000 -0.000  0.000
      -0.000  0.000  0.000  1.000  0.000
      -0.000  0.000  1.000 -0.000  0.000
       1.000  0.000  0.000  0.000 -0.000
       0.000 -0.000 -0.000 -0.000  1.000
     occupation matrix ns (before diag.):
       0.959 -0.000 -0.000  0.000  0.000
      -0.000  0.984 -0.000  0.000  0.000
      -0.000 -0.000  0.984  0.000  0.000
       0.000  0.000  0.000  0.949 -0.000
       0.000  0.000  0.000 -0.000  0.988
     ------------------------ ATOM   23 ------------------------
     Tr[ns( 23)] (up, down, total) =   4.86309  4.18351  9.04661
     Atomic magnetic moment for atom  23 =   0.67958
     SPIN  1
     eigenvalues:
       0.949  0.959  0.984  0.984  0.988
     eigenvectors (columns):
      -0.000  1.000 -0.000 -0.000  0.000
      -0.000  0.000  0.332  0.943  0.000
      -0.000  0.000  0.943 -0.332  0.000
       1.000  0.000  0.000  0.000 -0.000
       0.000 -0.000 -0.000 -0.000  1.000
     occupation matrix ns (before diag.):
       0.959 -0.000 -0.000  0.000  0.000
      -0.000  0.984 -0.000  0.000  0.000
      -0.000 -0.000  0.984  0.000  0.000
       0.000  0.000  0.000  0.949 -0.000
       0.000  0.000  0.000 -0.000  0.988
     SPIN  2
     eigenvalues:
       0.330  0.930  0.972  0.972  0.979
     eigenvectors (columns):
       0.000 -1.000 -0.000 -0.000  0.000
       0.000 -0.000  0.339  0.941  0.000
       0.000 -0.000  0.941 -0.339  0.000
      -1.000 -0.000  0.000  0.000 -0.000
      -0.000  0.000 -0.000 -0.000  1.000
     occupation matrix ns (before diag.):
       0.930 -0.000 -0.000 -0.000  0.000
      -0.000  0.972 -0.000  0.000  0.000
      -0.000 -0.000  0.972  0.000  0.000
      -0.000  0.000  0.000  0.330 -0.000
       0.000  0.000  0.000 -0.000  0.979
     ------------------------ ATOM   24 ------------------------
     Tr[ns( 24)] (up, down, total) =   4.86309  4.18351  9.04661
     Atomic magnetic moment for atom  24 =   0.67958
     SPIN  1
     eigenvalues:
       0.949  0.959  0.984  0.984  0.988
     eigenvectors (columns):
      -0.000  1.000 -0.000 -0.000  0.000
      -0.000  0.000  0.334  0.942  0.000
      -0.000  0.000  0.942 -0.334  0.000
       1.000  0.000  0.000  0.000 -0.000
       0.000 -0.000 -0.000 -0.000  1.000
     occupation matrix ns (before diag.):
       0.959 -0.000 -0.000  0.000  0.000
      -0.000  0.984 -0.000  0.000  0.000
      -0.000 -0.000  0.984  0.000  0.000
       0.000  0.000  0.000  0.949 -0.000
       0.000  0.000  0.000 -0.000  0.988
     SPIN  2
     eigenvalues:
       0.330  0.930  0.972  0.972  0.979
     eigenvectors (columns):
       0.000 -1.000 -0.000 -0.000  0.000
       0.000 -0.000  0.369  0.929  0.000
       0.000 -0.000  0.929 -0.369  0.000
      -1.000  0.000  0.000  0.000 -0.000
      -0.000  0.000 -0.000 -0.000  1.000
     occupation matrix ns (before diag.):
       0.930 -0.000 -0.000 -0.000  0.000
      -0.000  0.972 -0.000  0.000  0.000
      -0.000 -0.000  0.972  0.000  0.000
      -0.000  0.000  0.000  0.330 -0.000
       0.000  0.000  0.000 -0.000  0.979

     Number of occupied Hubbard levels =   72.3729

     negative rho (up, down):  3.699E-01 3.699E-01

     HUBBARD ENERGY =    0.3852  (Ry)

     total cpu time spent up to now is      107.1 secs

     total energy              =   -6555.87529191 Ry
     estimated scf accuracy    <       4.72871478 Ry

     total magnetization       =    -0.00 Bohr mag/cell
     absolute magnetization    =     6.99 Bohr mag/cell

     iteration #  3     ecut=    60.00 Ry     beta= 0.10
     Davidson diagonalization with overlap

---- Real-time Memory Report at c_bands before calling an iterative solver
          2030 MiB given to the printing process from OS
             0 MiB allocation reported by mallinfo(arena+hblkhd)
          5523 MiB available memory on the node where the printing process lives
------------------
     ethr =  9.53E-04,  avg # of iterations =  2.0

     =================== HUBBARD OCCUPATIONS ===================
     ------------------------ ATOM   14 ------------------------
     Tr[ns( 14)] (up, down, total) =   4.89489  4.71733  9.61223
     Atomic magnetic moment for atom  14 =   0.17756
     SPIN  1
     eigenvalues:
       0.953  0.973  0.989  0.989  0.991
     eigenvectors (columns):
      -0.000  1.000 -0.000 -0.000  0.000
      -0.000  0.000  0.324  0.946  0.000
      -0.000  0.000  0.946 -0.324  0.000
       1.000  0.000  0.000  0.000 -0.000
       0.000 -0.000 -0.000 -0.000  1.000
     occupation matrix ns (before diag.):
       0.973 -0.000 -0.000  0.000  0.000
      -0.000  0.989 -0.000  0.000  0.000
      -0.000 -0.000  0.989  0.000  0.000
       0.000  0.000  0.000  0.953 -0.000
       0.000  0.000  0.000 -0.000  0.991
     SPIN  2
     eigenvalues:
       0.812  0.956  0.982  0.982  0.986
     eigenvectors (columns):
      -0.000  1.000 -0.000 -0.000  0.000
      -0.000  0.000  0.356  0.934  0.000
      -0.000  0.000  0.934 -0.356  0.000
       1.000  0.000  0.000  0.000 -0.000
       0.000 -0.000 -0.000 -0.000  1.000
     occupation matrix ns (before diag.):
       0.956 -0.000 -0.000  0.000  0.000
      -0.000  0.982 -0.000  0.000  0.000
      -0.000 -0.000  0.982  0.000  0.000
       0.000  0.000  0.000  0.812 -0.000
       0.000  0.000  0.000 -0.000  0.986
     ------------------------ ATOM   15 ------------------------
     Tr[ns( 15)] (up, down, total) =   4.89489  4.71733  9.61223
     Atomic magnetic moment for atom  15 =   0.17756
     SPIN  1
     eigenvalues:
       0.953  0.973  0.989  0.989  0.991
     eigenvectors (columns):
      -0.000  1.000 -0.000 -0.000  0.000
      -0.000  0.000  0.350  0.937  0.000
      -0.000  0.000  0.937 -0.350  0.000
       1.000  0.000  0.000  0.000 -0.000
       0.000 -0.000 -0.000 -0.000  1.000
     occupation matrix ns (before diag.):
       0.973 -0.000 -0.000  0.000  0.000
      -0.000  0.989 -0.000  0.000  0.000
      -0.000 -0.000  0.989  0.000  0.000
       0.000  0.000  0.000  0.953 -0.000
       0.000  0.000  0.000 -0.000  0.991
     SPIN  2
     eigenvalues:
       0.812  0.956  0.982  0.982  0.986
     eigenvectors (columns):
      -0.000  1.000 -0.000 -0.000  0.000
      -0.000  0.000  0.380  0.925  0.000
      -0.000  0.000  0.925 -0.380  0.000
       1.000  0.000  0.000  0.000 -0.000
       0.000 -0.000 -0.000 -0.000  1.000
     occupation matrix ns (before diag.):
       0.956 -0.000 -0.000  0.000  0.000
      -0.000  0.982 -0.000  0.000  0.000
      -0.000 -0.000  0.982  0.000  0.000
       0.000  0.000  0.000  0.812 -0.000
       0.000  0.000  0.000 -0.000  0.986
     ------------------------ ATOM   17 ------------------------
     Tr[ns( 17)] (up, down, total) =   4.71733  4.89490  9.61222
     Atomic magnetic moment for atom  17 =  -0.17757
     SPIN  1
     eigenvalues:
       0.812  0.956  0.982  0.982  0.986
     eigenvectors (columns):
      -0.000  1.000 -0.000 -0.000  0.000
      -0.000  0.000  0.000  1.000  0.000
      -0.000  0.000  1.000 -0.000  0.000
       1.000  0.000  0.000  0.000 -0.000
       0.000 -0.000 -0.000 -0.000  1.000
     occupation matrix ns (before diag.):
       0.956 -0.000 -0.000  0.000  0.000
      -0.000  0.982 -0.000  0.000  0.000
      -0.000 -0.000  0.982  0.000  0.000
       0.000  0.000  0.000  0.812 -0.000
       0.000  0.000  0.000 -0.000  0.986
     SPIN  2
     eigenvalues:
       0.953  0.973  0.989  0.989  0.991
     eigenvectors (columns):
       0.000  1.000 -0.000 -0.000  0.000
      -0.000  0.000  1.000 -0.000  0.000
      -0.000  0.000  0.000  1.000  0.000
       1.000 -0.000  0.000  0.000 -0.000
       0.000 -0.000 -0.000 -0.000  1.000
     occupation matrix ns (before diag.):
       0.973 -0.000 -0.000 -0.000  0.000
      -0.000  0.989 -0.000  0.000  0.000
      -0.000 -0.000  0.989  0.000  0.000
      -0.000  0.000  0.000  0.953 -0.000
       0.000  0.000  0.000 -0.000  0.991
     ------------------------ ATOM   18 ------------------------
     Tr[ns( 18)] (up, down, total) =   4.71733  4.89490  9.61222
     Atomic magnetic moment for atom  18 =  -0.17757
     SPIN  1
     eigenvalues:
       0.812  0.956  0.982  0.982  0.986
     eigenvectors (columns):
      -0.000  1.000 -0.000 -0.000  0.000
      -0.000  0.000  0.000  1.000  0.000
      -0.000  0.000  1.000 -0.000  0.000
       1.000  0.000  0.000  0.000 -0.000
       0.000 -0.000 -0.000 -0.000  1.000
     occupation matrix ns (before diag.):
       0.956 -0.000 -0.000  0.000  0.000
      -0.000  0.982 -0.000  0.000  0.000
      -0.000 -0.000  0.982  0.000  0.000
       0.000  0.000  0.000  0.812 -0.000
       0.000  0.000  0.000 -0.000  0.986
     SPIN  2
     eigenvalues:
       0.953  0.973  0.989  0.989  0.991
     eigenvectors (columns):
       0.000  1.000 -0.000 -0.000  0.000
      -0.000  0.000  1.000 -0.000  0.000
      -0.000  0.000  0.000  1.000  0.000
       1.000 -0.000  0.000  0.000 -0.000
       0.000 -0.000 -0.000 -0.000  1.000
     occupation matrix ns (before diag.):
       0.973 -0.000 -0.000 -0.000  0.000
      -0.000  0.989 -0.000  0.000  0.000
      -0.000 -0.000  0.989  0.000  0.000
      -0.000  0.000  0.000  0.953 -0.000
       0.000  0.000  0.000 -0.000  0.991
     ------------------------ ATOM   20 ------------------------
     Tr[ns( 20)] (up, down, total) =   4.71733  4.89490  9.61222
     Atomic magnetic moment for atom  20 =  -0.17757
     SPIN  1
     eigenvalues:
       0.812  0.956  0.982  0.982  0.986
     eigenvectors (columns):
       0.000  1.000 -0.000 -0.000  0.000
      -0.000  0.000  1.000 -0.000  0.000
      -0.000  0.000  0.000  1.000  0.000
       1.000 -0.000  0.000  0.000 -0.000
       0.000 -0.000 -0.000 -0.000  1.000
     occupation matrix ns (before diag.):
       0.956 -0.000 -0.000 -0.000  0.000
      -0.000  0.982 -0.000  0.000  0.000
      -0.000 -0.000  0.982  0.000  0.000
      -0.000  0.000  0.000  0.812 -0.000
       0.000  0.000  0.000 -0.000  0.986
     SPIN  2
     eigenvalues:
       0.953  0.973  0.989  0.989  0.991
     eigenvectors (columns):
      -0.000  1.000 -0.000 -0.000  0.000
      -0.000  0.000  0.000  1.000  0.000
      -0.000  0.000  1.000 -0.000  0.000
       1.000  0.000  0.000  0.000 -0.000
       0.000 -0.000 -0.000 -0.000  1.000
     occupation matrix ns (before diag.):
       0.973 -0.000 -0.000  0.000  0.000
      -0.000  0.989 -0.000  0.000  0.000
      -0.000 -0.000  0.989  0.000  0.000
       0.000  0.000  0.000  0.953 -0.000
       0.000  0.000  0.000 -0.000  0.991
     ------------------------ ATOM   21 ------------------------
     Tr[ns( 21)] (up, down, total) =   4.71733  4.89490  9.61222
     Atomic magnetic moment for atom  21 =  -0.17757
     SPIN  1
     eigenvalues:
       0.812  0.956  0.982  0.982  0.986
     eigenvectors (columns):
       0.000  1.000 -0.000 -0.000  0.000
      -0.000  0.000  1.000 -0.000  0.000
      -0.000  0.000  0.000  1.000  0.000
       1.000 -0.000  0.000  0.000 -0.000
       0.000 -0.000 -0.000 -0.000  1.000
     occupation matrix ns (before diag.):
       0.956 -0.000 -0.000 -0.000  0.000
      -0.000  0.982 -0.000  0.000  0.000
      -0.000 -0.000  0.982  0.000  0.000
      -0.000  0.000  0.000  0.812 -0.000
       0.000  0.000  0.000 -0.000  0.986
     SPIN  2
     eigenvalues:
       0.953  0.973  0.989  0.989  0.991
     eigenvectors (columns):
      -0.000  1.000 -0.000 -0.000  0.000
      -0.000  0.000  0.000  1.000  0.000
      -0.000  0.000  1.000 -0.000  0.000
       1.000  0.000  0.000  0.000 -0.000
       0.000 -0.000 -0.000 -0.000  1.000
     occupation matrix ns (before diag.):
       0.973 -0.000 -0.000  0.000  0.000
      -0.000  0.989 -0.000  0.000  0.000
      -0.000 -0.000  0.989  0.000  0.000
       0.000  0.000  0.000  0.953 -0.000
       0.000  0.000  0.000 -0.000  0.991
     ------------------------ ATOM   23 ------------------------
     Tr[ns( 23)] (up, down, total) =   4.89487  4.71733  9.61220
     Atomic magnetic moment for atom  23 =   0.17755
     SPIN  1
     eigenvalues:
       0.953  0.973  0.989  0.989  0.991
     eigenvectors (columns):
      -0.000  1.000 -0.000 -0.000  0.000
      -0.000  0.000  0.334  0.943  0.000
      -0.000  0.000  0.943 -0.334  0.000
       1.000  0.000  0.000  0.000 -0.000
       0.000 -0.000 -0.000 -0.000  1.000
     occupation matrix ns (before diag.):
       0.973 -0.000 -0.000  0.000  0.000
      -0.000  0.989 -0.000  0.000  0.000
      -0.000 -0.000  0.989  0.000  0.000
       0.000  0.000  0.000  0.953 -0.000
       0.000  0.000  0.000 -0.000  0.991
     SPIN  2
     eigenvalues:
       0.812  0.956  0.982  0.982  0.986
     eigenvectors (columns):
      -0.000  1.000 -0.000 -0.000  0.000
      -0.000  0.000  0.325  0.946  0.000
      -0.000  0.000  0.946 -0.325  0.000
       1.000  0.000  0.000  0.000 -0.000
       0.000 -0.000 -0.000 -0.000  1.000
     occupation matrix ns (before diag.):
       0.956 -0.000 -0.000  0.000  0.000
      -0.000  0.982 -0.000  0.000  0.000
      -0.000 -0.000  0.982  0.000  0.000
       0.000  0.000  0.000  0.812 -0.000
       0.000  0.000  0.000 -0.000  0.986
     ------------------------ ATOM   24 ------------------------
     Tr[ns( 24)] (up, down, total) =   4.89487  4.71733  9.61220
     Atomic magnetic moment for atom  24 =   0.17755
     SPIN  1
     eigenvalues:
       0.953  0.973  0.989  0.989  0.991
     eigenvectors (columns):
      -0.000  1.000 -0.000 -0.000  0.000
      -0.000  0.000  0.320  0.947  0.000
      -0.000  0.000  0.947 -0.320  0.000
       1.000  0.000  0.000  0.000 -0.000
       0.000 -0.000 -0.000 -0.000  1.000
     occupation matrix ns (before diag.):
       0.973 -0.000 -0.000  0.000  0.000
      -0.000  0.989 -0.000  0.000  0.000
      -0.000 -0.000  0.989  0.000  0.000
       0.000  0.000  0.000  0.953 -0.000
       0.000  0.000  0.000 -0.000  0.991
     SPIN  2
     eigenvalues:
       0.812  0.956  0.982  0.982  0.986
     eigenvectors (columns):
      -0.000  1.000 -0.000 -0.000  0.000
      -0.000  0.000  0.342  0.940  0.000
      -0.000  0.000  0.940 -0.342  0.000
       1.000  0.000  0.000  0.000 -0.000
       0.000 -0.000 -0.000 -0.000  1.000
     occupation matrix ns (before diag.):
       0.956 -0.000 -0.000  0.000  0.000
      -0.000  0.982 -0.000  0.000  0.000
      -0.000 -0.000  0.982  0.000  0.000
       0.000  0.000  0.000  0.812 -0.000
       0.000  0.000  0.000 -0.000  0.986

     Number of occupied Hubbard levels =   76.8977

     negative rho (up, down):  3.706E-01 3.706E-01

     HUBBARD ENERGY =    0.3875  (Ry)

     total cpu time spent up to now is      151.2 secs

     total energy              =   -6556.49407087 Ry
     estimated scf accuracy    <       5.43672910 Ry

     total magnetization       =     0.00 Bohr mag/cell
     absolute magnetization    =     2.55 Bohr mag/cell

     iteration #  4     ecut=    60.00 Ry     beta= 0.10
     Davidson diagonalization with overlap

---- Real-time Memory Report at c_bands before calling an iterative solver
          2036 MiB given to the printing process from OS
             0 MiB allocation reported by mallinfo(arena+hblkhd)
          5516 MiB available memory on the node where the printing process lives
------------------
     ethr =  9.53E-04,  avg # of iterations =  1.0

     =================== HUBBARD OCCUPATIONS ===================
     ------------------------ ATOM   14 ------------------------
     Tr[ns( 14)] (up, down, total) =   4.88519  4.33943  9.22462
     Atomic magnetic moment for atom  14 =   0.54576
     SPIN  1
     eigenvalues:
       0.951  0.968  0.988  0.988  0.991
     eigenvectors (columns):
      -0.000  1.000 -0.000 -0.000  0.000
      -0.000  0.000  0.324  0.946  0.000
      -0.000  0.000  0.946 -0.324  0.000
       1.000  0.000  0.000  0.000 -0.000
       0.000 -0.000 -0.000 -0.000  1.000
     occupation matrix ns (before diag.):
       0.968 -0.000 -0.000  0.000  0.000
      -0.000  0.988 -0.000  0.000  0.000
      -0.000 -0.000  0.988  0.000  0.000
       0.000  0.000  0.000  0.951 -0.000
       0.000  0.000  0.000 -0.000  0.991
     SPIN  2
     eigenvalues:
       0.442  0.951  0.981  0.981  0.985
     eigenvectors (columns):
       0.000 -1.000 -0.000 -0.000  0.000
       0.000 -0.000  0.376  0.927  0.000
       0.000 -0.000  0.927 -0.376  0.000
      -1.000 -0.000  0.000  0.000 -0.000
      -0.000  0.000 -0.000 -0.000  1.000
     occupation matrix ns (before diag.):
       0.951 -0.000 -0.000  0.000  0.000
      -0.000  0.981 -0.000  0.000  0.000
      -0.000 -0.000  0.981  0.000  0.000
       0.000  0.000  0.000  0.442 -0.000
       0.000  0.000  0.000 -0.000  0.985
     ------------------------ ATOM   15 ------------------------
     Tr[ns( 15)] (up, down, total) =   4.88519  4.33943  9.22462
     Atomic magnetic moment for atom  15 =   0.54576
     SPIN  1
     eigenvalues:
       0.951  0.968  0.988  0.988  0.991
     eigenvectors (columns):
      -0.000  1.000 -0.000 -0.000  0.000
      -0.000  0.000  0.317  0.949  0.000
      -0.000  0.000  0.949 -0.317  0.000
       1.000  0.000  0.000  0.000 -0.000
       0.000 -0.000 -0.000 -0.000  1.000
     occupation matrix ns (before diag.):
       0.968 -0.000 -0.000  0.000  0.000
      -0.000  0.988 -0.000  0.000  0.000
      -0.000 -0.000  0.988  0.000  0.000
       0.000  0.000  0.000  0.951 -0.000
       0.000  0.000  0.000 -0.000  0.991
     SPIN  2
     eigenvalues:
       0.442  0.951  0.981  0.981  0.985
     eigenvectors (columns):
       0.000 -1.000 -0.000 -0.000  0.000
       0.000 -0.000  0.306  0.952  0.000
       0.000 -0.000  0.952 -0.306  0.000
      -1.000 -0.000  0.000  0.000 -0.000
      -0.000  0.000 -0.000 -0.000  1.000
     occupation matrix ns (before diag.):
       0.951 -0.000 -0.000  0.000  0.000
      -0.000  0.981 -0.000  0.000  0.000
      -0.000 -0.000  0.981  0.000  0.000
       0.000  0.000  0.000  0.442 -0.000
       0.000  0.000  0.000 -0.000  0.985
     ------------------------ ATOM   17 ------------------------
     Tr[ns( 17)] (up, down, total) =   4.33948  4.88520  9.22469
     Atomic magnetic moment for atom  17 =  -0.54572
     SPIN  1
     eigenvalues:
       0.442  0.951  0.981  0.981  0.985
     eigenvectors (columns):
      -0.000 -1.000 -0.000 -0.000  0.000
       0.000 -0.000  0.000  1.000  0.000
       0.000 -0.000  1.000 -0.000  0.000
      -1.000  0.000  0.000  0.000 -0.000
      -0.000  0.000 -0.000 -0.000  1.000
     occupation matrix ns (before diag.):
       0.951 -0.000 -0.000 -0.000  0.000
      -0.000  0.981 -0.000  0.000  0.000
      -0.000 -0.000  0.981  0.000  0.000
      -0.000  0.000  0.000  0.442 -0.000
       0.000  0.000  0.000 -0.000  0.985
     SPIN  2
     eigenvalues:
       0.951  0.968  0.988  0.988  0.991
     eigenvectors (columns):
      -0.000  1.000 -0.000 -0.000  0.000
      -0.000  0.000  1.000 -0.000  0.000
      -0.000  0.000  0.000  1.000  0.000
       1.000  0.000  0.000  0.000 -0.000
       0.000 -0.000 -0.000 -0.000  1.000
     occupation matrix ns (before diag.):
       0.968 -0.000 -0.000  0.000  0.000
      -0.000  0.988 -0.000  0.000  0.000
      -0.000 -0.000  0.988  0.000  0.000
       0.000  0.000  0.000  0.951 -0.000
       0.000  0.000  0.000 -0.000  0.991
     ------------------------ ATOM   18 ------------------------
     Tr[ns( 18)] (up, down, total) =   4.33948  4.88520  9.22469
     Atomic magnetic moment for atom  18 =  -0.54572
     SPIN  1
     eigenvalues:
       0.442  0.951  0.981  0.981  0.985
     eigenvectors (columns):
      -0.000 -1.000 -0.000 -0.000  0.000
       0.000 -0.000  0.000  1.000  0.000
       0.000 -0.000  1.000 -0.000  0.000
      -1.000  0.000  0.000  0.000 -0.000
      -0.000  0.000 -0.000 -0.000  1.000
     occupation matrix ns (before diag.):
       0.951 -0.000 -0.000 -0.000  0.000
      -0.000  0.981 -0.000  0.000  0.000
      -0.000 -0.000  0.981  0.000  0.000
      -0.000  0.000  0.000  0.442 -0.000
       0.000  0.000  0.000 -0.000  0.985
     SPIN  2
     eigenvalues:
       0.951  0.968  0.988  0.988  0.991
     eigenvectors (columns):
      -0.000  1.000 -0.000 -0.000  0.000
      -0.000  0.000  1.000 -0.000  0.000
      -0.000  0.000  0.000  1.000  0.000
       1.000  0.000  0.000  0.000 -0.000
       0.000 -0.000 -0.000 -0.000  1.000
     occupation matrix ns (before diag.):
       0.968 -0.000 -0.000  0.000  0.000
      -0.000  0.988 -0.000  0.000  0.000
      -0.000 -0.000  0.988  0.000  0.000
       0.000  0.000  0.000  0.951 -0.000
       0.000  0.000  0.000 -0.000  0.991
     ------------------------ ATOM   20 ------------------------
     Tr[ns( 20)] (up, down, total) =   4.33948  4.88520  9.22469
     Atomic magnetic moment for atom  20 =  -0.54572
     SPIN  1
     eigenvalues:
       0.442  0.951  0.981  0.981  0.985
     eigenvectors (columns):
       0.000 -1.000 -0.000 -0.000  0.000
       0.000 -0.000  1.000 -0.000  0.000
       0.000 -0.000  0.000  1.000  0.000
      -1.000 -0.000  0.000  0.000 -0.000
      -0.000  0.000 -0.000 -0.000  1.000
     occupation matrix ns (before diag.):
       0.951 -0.000 -0.000  0.000  0.000
      -0.000  0.981 -0.000  0.000  0.000
      -0.000 -0.000  0.981  0.000  0.000
       0.000  0.000  0.000  0.442 -0.000
       0.000  0.000  0.000 -0.000  0.985
     SPIN  2
     eigenvalues:
       0.951  0.968  0.988  0.988  0.991
     eigenvectors (columns):
       0.000  1.000 -0.000 -0.000  0.000
      -0.000  0.000  0.000  1.000  0.000
      -0.000  0.000  1.000 -0.000  0.000
       1.000 -0.000  0.000  0.000 -0.000
       0.000 -0.000 -0.000 -0.000  1.000
     occupation matrix ns (before diag.):
       0.968 -0.000 -0.000 -0.000  0.000
      -0.000  0.988 -0.000  0.000  0.000
      -0.000 -0.000  0.988  0.000  0.000
      -0.000  0.000  0.000  0.951 -0.000
       0.000  0.000  0.000 -0.000  0.991
     ------------------------ ATOM   21 ------------------------
     Tr[ns( 21)] (up, down, total) =   4.33948  4.88520  9.22469
     Atomic magnetic moment for atom  21 =  -0.54572
     SPIN  1
     eigenvalues:
       0.442  0.951  0.981  0.981  0.985
     eigenvectors (columns):
       0.000 -1.000 -0.000 -0.000  0.000
       0.000 -0.000  1.000 -0.000  0.000
       0.000 -0.000  0.000  1.000  0.000
      -1.000 -0.000  0.000  0.000 -0.000
      -0.000  0.000 -0.000 -0.000  1.000
     occupation matrix ns (before diag.):
       0.951 -0.000 -0.000  0.000  0.000
      -0.000  0.981 -0.000  0.000  0.000
      -0.000 -0.000  0.981  0.000  0.000
       0.000  0.000  0.000  0.442 -0.000
       0.000  0.000  0.000 -0.000  0.985
     SPIN  2
     eigenvalues:
       0.951  0.968  0.988  0.988  0.991
     eigenvectors (columns):
       0.000  1.000 -0.000 -0.000  0.000
      -0.000  0.000  0.000  1.000  0.000
      -0.000  0.000  1.000 -0.000  0.000
       1.000 -0.000  0.000  0.000 -0.000
       0.000 -0.000 -0.000 -0.000  1.000
     occupation matrix ns (before diag.):
       0.968 -0.000 -0.000 -0.000  0.000
      -0.000  0.988 -0.000  0.000  0.000
      -0.000 -0.000  0.988  0.000  0.000
      -0.000  0.000  0.000  0.951 -0.000
       0.000  0.000  0.000 -0.000  0.991
     ------------------------ ATOM   23 ------------------------
     Tr[ns( 23)] (up, down, total) =   4.88518  4.33945  9.22463
     Atomic magnetic moment for atom  23 =   0.54574
     SPIN  1
     eigenvalues:
       0.951  0.968  0.988  0.988  0.991
     eigenvectors (columns):
      -0.000  1.000 -0.000 -0.000  0.000
      -0.000  0.000  0.317  0.948  0.000
      -0.000  0.000  0.948 -0.317  0.000
       1.000  0.000  0.000  0.000 -0.000
       0.000 -0.000 -0.000 -0.000  1.000
     occupation matrix ns (before diag.):
       0.968 -0.000 -0.000  0.000  0.000
      -0.000  0.988 -0.000  0.000  0.000
      -0.000 -0.000  0.988  0.000  0.000
       0.000  0.000  0.000  0.951 -0.000
       0.000  0.000  0.000 -0.000  0.991
     SPIN  2
     eigenvalues:
       0.442  0.951  0.981  0.981  0.985
     eigenvectors (columns):
       0.000 -1.000 -0.000 -0.000  0.000
       0.000 -0.000  0.336  0.942  0.000
       0.000 -0.000  0.942 -0.336  0.000
      -1.000 -0.000  0.000  0.000 -0.000
[...]
     8.2658   8.3701   8.3701   8.6718   8.7034   8.7034   8.7480   8.7720
     8.7720   8.7993   8.8107   8.8769   9.0395   9.0395   9.0488   9.0623
     9.0623   9.1821   9.2293   9.2357   9.2509   9.2875   9.3228   9.3645
     9.3725   9.3794   9.3971   9.4147   9.4301   9.4301   9.4591   9.4794
     9.4794   9.4919   9.5035   9.5440   9.5702   9.6014   9.6453   9.6453
     9.7842   9.7842   9.8380   9.8908   9.9049   9.9329   9.9556   9.9924
    10.1013  10.1119  10.1119  10.1847  10.3323  10.3323  10.4968  10.4968
    10.5595  10.5713  10.6143  10.6143  11.0357  11.0357  11.1217  11.1217
    11.2244  11.6952  13.0296  13.0296  13.6236  13.6946  13.9775  14.0642
    14.0642  14.2789  14.2874  14.3826  14.5000  15.5844  15.6131  15.6131
    15.6374  15.6413  15.7409  16.0858  16.1085  16.2887  16.2887  16.4814
    16.5683  16.7873  16.7978  16.8685  16.8685  16.9064  16.9064  16.9414
    16.9414  16.9447  17.0413  17.0941  17.1514  17.1514  17.5962  17.6064
    17.6110  17.6369  17.6369  17.8112  17.8126  18.2232  18.3355  18.4805
    18.4805  18.6325

     occupation numbers 
     1.0000   1.0000   1.0000   1.0000   1.0000   1.0000   1.0000   1.0000
     1.0000   1.0000   1.0000   1.0000   1.0000   1.0000   1.0000   1.0000
     1.0000   1.0000   1.0000   1.0000   1.0000   1.0000   1.0000   1.0000
     1.0000   1.0000   1.0000   1.0000   1.0000   1.0000   1.0000   1.0000
     1.0000   1.0000   1.0000   1.0000   1.0000   1.0000   1.0000   1.0000
     1.0000   1.0000   1.0000   1.0000   1.0000   1.0000   1.0000   1.0000
     1.0000   1.0000   1.0000   1.0000   1.0000   1.0000   1.0000   1.0000
     1.0000   1.0000   1.0000   1.0000   1.0000   1.0000   1.0000   1.0000
     1.0000   1.0000   1.0000   1.0000   1.0000   1.0000   1.0000   1.0000
     1.0000   1.0000   1.0000   1.0000   1.0000   1.0000   1.0000   1.0000
     1.0000   1.0000   1.0000   1.0000   1.0000   1.0000   1.0000   1.0000
     1.0000   1.0000   1.0000   1.0000   1.0000   1.0000   1.0000   1.0000
     1.0000   1.0000   1.0000   1.0000   1.0000   1.0000   1.0000   1.0000
     1.0000   1.0000   1.0000   1.0000   1.0000   1.0000   1.0000   1.0000
     1.0000   1.0000   1.0000   1.0000   1.0000   1.0000   1.0000   1.0000
     1.0000   1.0000   1.0000   1.0000   1.0000   1.0000   1.0000   1.0000
     1.0000   1.0000   1.0000   1.0000   1.0000   1.0000   1.0000   1.0000
     1.0000   1.0000   1.0000   1.0000   1.0000   1.0000   1.0000   1.0000
     1.0000   1.0000   1.0000   1.0000   1.0000   1.0000   1.0000   1.0000
     1.0000   1.0000   1.0000   1.0000   1.0000   1.0000   1.0000   1.0000
     1.0000   1.0000   1.0000   1.0000   1.0000   1.0000   1.0000   1.0000
     1.0000   1.0000   1.0000   1.0000   1.0000   1.0000   1.0000   1.0000
     1.0000   1.0000   1.0000   1.0000   1.0000   1.0000   1.0000   1.0000
     1.0000   1.0000   1.0000   1.0000   1.0000   1.0000   1.0000   1.0000
     1.0000   1.0000   1.0000   1.0000   1.0000   1.0000   1.0000   1.0000
     1.0000   1.0000   1.0000   1.0000   1.0000   1.0000   1.0000   1.0000
     1.0000   1.0000   1.0000   1.0000   1.0000   1.0000   1.0000   1.0000
     1.0000   1.0000   1.0000   1.0000   1.0000   1.0000   1.0000   1.0000
     1.0000   1.0000   1.0000   1.0000   1.0000   1.0000   1.0000   1.0000
     1.0000   1.0000   1.0000   1.0000   1.0000   1.0000   1.0000   1.0000
     1.0000   1.0000   1.0000   1.0000   1.0311   1.0311   0.8361   0.8361
     0.2484  -0.0000  -0.0000  -0.0000  -0.0000  -0.0000  -0.0000  -0.0000
    -0.0000  -0.0000  -0.0000  -0.0000  -0.0000  -0.0000  -0.0000  -0.0000
    -0.0000  -0.0000  -0.0000  -0.0000  -0.0000  -0.0000  -0.0000  -0.0000
    -0.0000  -0.0000  -0.0000  -0.0000  -0.0000  -0.0000  -0.0000  -0.0000
    -0.0000  -0.0000  -0.0000  -0.0000  -0.0000  -0.0000  -0.0000  -0.0000
    -0.0000  -0.0000  -0.0000  -0.0000  -0.0000  -0.0000  -0.0000  -0.0000
    -0.0000  -0.0000

 ------ SPIN DOWN ----------


          k = 0.0000 0.0000 0.0000 ( 35361 PWs)   bands (ev):

  -101.0918-101.0918-101.0918-101.0917-100.5926-100.5926-100.5913-100.5912
  -100.4616-100.4616-100.4616-100.4616 -58.7233 -58.7233 -58.7233 -58.7233
   -58.7232 -58.7232 -58.7232 -58.7232 -58.1799 -58.1799 -58.1779 -58.1779
   -58.0135 -58.0135 -58.0120 -58.0119 -57.9626 -57.9626 -57.9626 -57.9626
   -57.9624 -57.9624 -57.9624 -57.9624 -57.8992 -57.8992 -57.8992 -57.8992
   -57.8981 -57.8981 -57.8981 -57.8981 -57.7301 -57.7300 -57.7284 -57.7284
   -29.7667 -29.7494 -29.7494 -29.7326 -15.0314 -15.0246 -14.8870 -14.8870
   -14.8818 -14.8818 -14.7770 -14.7716 -10.5163 -10.5116 -10.4968 -10.4466
   -10.4466 -10.1836 -10.1836  -9.9104  -9.7908  -9.7908  -9.7688  -9.7667
    -7.4115  -6.7348  -6.7143  -6.5546  -6.5546  -6.4647  -6.4567  -6.3733
    -6.3733  -6.2555  -6.1475  -6.1403  -6.0678  -6.0453  -6.0366  -5.9197
    -5.8984  -5.8542  -5.8164  -5.8129  -5.8129  -5.7309  -5.7115  -5.7115
    -0.7778  -0.7778  -0.7640  -0.7640  -0.4131  -0.4078  -0.4008  -0.4008
    -0.2326  -0.2272  -0.2272  -0.1914  -0.0793  -0.0771   0.0009   0.0029
     0.0986   0.0986   0.1024   0.1024   0.3421   0.3423   0.3503   0.3505
     3.6939   4.3100   4.5888   4.7207   5.1122   5.2767   5.2830   5.3634
     5.4228   5.9833   6.0261   6.0407   6.0407   6.0753   6.0883   6.1071
     6.1071   6.1517   6.1578   6.1637   6.2381   6.4098   6.4098   6.5404
     6.5404   6.5774   6.6891   6.6891   6.7973   6.8088   6.8088   6.9905
     6.9905   7.1214   7.1214   7.3385   7.3385   7.3444   7.3492   7.3965
     7.4576   7.4933   7.5396   7.5601   7.5655   7.6241   7.6374   7.6374
     7.7268   7.7268   7.9050   7.9050   7.9235   7.9235   7.9307   7.9307
     8.0703   8.0858   8.0858   8.0944   8.0944   8.1910   8.2150   8.2165
     8.2165   8.2861   8.4031   8.4031   8.6255   8.7132   8.7132   8.7465
     8.7465   8.7489   8.7532   8.7593   8.8500   9.0470   9.0470   9.1388
     9.1388   9.1804   9.1994   9.2062   9.2415   9.2591   9.2632   9.2632
     9.3678   9.3680   9.4344   9.4344   9.4381   9.4593   9.4980   9.5460
     9.5612   9.5703   9.6014   9.6090   9.6459   9.7651   9.7651   9.7673
     9.8221   9.8324   9.8766   9.8766   9.8854   9.9364   9.9435   9.9918
    10.0371  10.0371  10.1035  10.1847  10.2257  10.2257  10.4495  10.6055
    10.6055  10.6200  10.6200  10.6465  11.0308  11.0308  11.1232  11.1232
    11.2163  11.7290  12.9790  12.9790  13.6235  13.6548  13.6947  14.0315
    14.0520  14.0520  14.2897  14.4890  14.6127  15.5423  15.5950  15.6053
    15.7717  15.8044  15.8044  16.2882  16.2882  16.3298  16.4814  16.6723
    16.6723  16.7943  16.7973  16.9016  16.9172  16.9250  16.9562  16.9562
    17.0242  17.0242  17.0505  17.1071  17.1659  17.1659  17.2327  17.5075
    17.6371  17.6407  17.9908  17.9918  18.1466  18.1466  18.3110  18.3129
    18.3948  18.3949

     occupation numbers 
     1.0000   1.0000   1.0000   1.0000   1.0000   1.0000   1.0000   1.0000
     1.0000   1.0000   1.0000   1.0000   1.0000   1.0000   1.0000   1.0000
     1.0000   1.0000   1.0000   1.0000   1.0000   1.0000   1.0000   1.0000
     1.0000   1.0000   1.0000   1.0000   1.0000   1.0000   1.0000   1.0000
     1.0000   1.0000   1.0000   1.0000   1.0000   1.0000   1.0000   1.0000
     1.0000   1.0000   1.0000   1.0000   1.0000   1.0000   1.0000   1.0000
     1.0000   1.0000   1.0000   1.0000   1.0000   1.0000   1.0000   1.0000
     1.0000   1.0000   1.0000   1.0000   1.0000   1.0000   1.0000   1.0000
     1.0000   1.0000   1.0000   1.0000   1.0000   1.0000   1.0000   1.0000
     1.0000   1.0000   1.0000   1.0000   1.0000   1.0000   1.0000   1.0000
     1.0000   1.0000   1.0000   1.0000   1.0000   1.0000   1.0000   1.0000
     1.0000   1.0000   1.0000   1.0000   1.0000   1.0000   1.0000   1.0000
     1.0000   1.0000   1.0000   1.0000   1.0000   1.0000   1.0000   1.0000
     1.0000   1.0000   1.0000   1.0000   1.0000   1.0000   1.0000   1.0000
     1.0000   1.0000   1.0000   1.0000   1.0000   1.0000   1.0000   1.0000
     1.0000   1.0000   1.0000   1.0000   1.0000   1.0000   1.0000   1.0000
     1.0000   1.0000   1.0000   1.0000   1.0000   1.0000   1.0000   1.0000
     1.0000   1.0000   1.0000   1.0000   1.0000   1.0000   1.0000   1.0000
     1.0000   1.0000   1.0000   1.0000   1.0000   1.0000   1.0000   1.0000
     1.0000   1.0000   1.0000   1.0000   1.0000   1.0000   1.0000   1.0000
     1.0000   1.0000   1.0000   1.0000   1.0000   1.0000   1.0000   1.0000
     1.0000   1.0000   1.0000   1.0000   1.0000   1.0000   1.0000   1.0000
     1.0000   1.0000   1.0000   1.0000   1.0000   1.0000   1.0000   1.0000
     1.0000   1.0000   1.0000   1.0000   1.0000   1.0000   1.0000   1.0000
     1.0000   1.0000   1.0000   1.0000   1.0000   1.0000   1.0000   1.0000
     1.0000   1.0000   1.0000   1.0000   1.0000   1.0000   1.0000   1.0000
     1.0000   1.0000   1.0000   1.0000   1.0000   1.0000   1.0000   1.0000
     1.0000   1.0000   1.0000   1.0000   1.0000   1.0000   1.0000   1.0000
     1.0000   1.0000   1.0000   1.0000   1.0000   1.0000   1.0000   1.0000
     1.0000   1.0000   1.0000   1.0000   1.0000   1.0000   1.0000   1.0000
     1.0000   1.0000   1.0000   1.0000   1.0331   1.0331   0.8292   0.8292
     0.2926  -0.0000  -0.0000  -0.0000  -0.0000  -0.0000  -0.0000  -0.0000
    -0.0000  -0.0000  -0.0000  -0.0000  -0.0000  -0.0000  -0.0000  -0.0000
    -0.0000  -0.0000  -0.0000  -0.0000  -0.0000  -0.0000  -0.0000  -0.0000
    -0.0000  -0.0000  -0.0000  -0.0000  -0.0000  -0.0000  -0.0000  -0.0000
    -0.0000  -0.0000  -0.0000  -0.0000  -0.0000  -0.0000  -0.0000  -0.0000
    -0.0000  -0.0000  -0.0000  -0.0000  -0.0000  -0.0000  -0.0000  -0.0000
    -0.0000  -0.0000

          k = 0.0000 0.0000-0.3279 ( 35390 PWs)   bands (ev):

  -101.0918-101.0918-101.0918-101.0917-100.5926-100.5926-100.5913-100.5912
  -100.4616-100.4616-100.4616-100.4616 -58.7233 -58.7233 -58.7233 -58.7233
   -58.7232 -58.7232 -58.7232 -58.7232 -58.1799 -58.1799 -58.1779 -58.1779
   -58.0136 -58.0135 -58.0119 -58.0119 -57.9626 -57.9626 -57.9626 -57.9626
   -57.9624 -57.9624 -57.9624 -57.9624 -57.8992 -57.8992 -57.8992 -57.8992
   -57.8981 -57.8981 -57.8981 -57.8981 -57.7301 -57.7301 -57.7284 -57.7284
   -29.7667 -29.7494 -29.7494 -29.7326 -15.0343 -15.0217 -14.8890 -14.8890
   -14.8797 -14.8797 -14.7785 -14.7701 -10.5163 -10.5116 -10.4970 -10.4466
   -10.4466 -10.1836 -10.1836  -9.9104  -9.7908  -9.7908  -9.7688  -9.7667
    -7.4104  -6.7657  -6.7471  -6.5540  -6.5540  -6.3733  -6.3733  -6.3186
    -6.3081  -6.2566  -6.2335  -6.2223  -6.1475  -6.1402  -6.0675  -5.8542
    -5.8465  -5.8283  -5.8165  -5.8136  -5.8136  -5.7314  -5.7115  -5.7115
    -0.7817  -0.7817  -0.7602  -0.7602  -0.3657  -0.3657  -0.3592  -0.3536
    -0.2955  -0.2644  -0.2644  -0.2429  -0.0802  -0.0783   0.0016   0.0038
     0.0948   0.0948   0.1063   0.1063   0.3382   0.3384   0.3543   0.3545
     3.7099   4.2873   4.5958   4.7151   5.1257   5.2664   5.3098   5.3633
     5.4228   5.9614   6.0416   6.0416   6.0470   6.0868   6.0925   6.0999
     6.0999   6.1597   6.1639   6.1829   6.2365   6.4088   6.4088   6.5395
     6.5395   6.5788   6.6883   6.6883   6.7990   6.9009   6.9009   6.9938
     6.9938   7.1359   7.1359   7.2429   7.2905   7.3314   7.3314   7.3453
     7.3870   7.4390   7.4547   7.4547   7.5187   7.5485   7.5659   7.6236
     7.7795   7.7795   7.9110   7.9110   7.9250   7.9250   7.9282   7.9282
     8.0724   8.0724   8.1050   8.1050   8.1602   8.1717   8.1859   8.2659
     8.2659   8.3702   8.3702   8.6718   8.7034   8.7034   8.7481   8.7721
     8.7721   8.7994   8.8108   8.8770   9.0396   9.0396   9.0488   9.0625
     9.0625   9.1822   9.2294   9.2357   9.2509   9.2877   9.3229   9.3647
     9.3725   9.3796   9.3971   9.4148   9.4301   9.4301   9.4593   9.4795
     9.4795   9.4919   9.5035   9.5440   9.5703   9.6014   9.6453   9.6453
     9.7842   9.7842   9.8381   9.8908   9.9049   9.9329   9.9557   9.9926
    10.1013  10.1119  10.1119  10.1847  10.3323  10.3323  10.4971  10.4971
    10.5596  10.5715  10.6146  10.6146  11.0360  11.0360  11.1220  11.1220
    11.2244  11.6952  13.0296  13.0296  13.6236  13.6946  13.9775  14.0642
    14.0642  14.2790  14.2875  14.3826  14.5000  15.5844  15.6131  15.6131
    15.6374  15.6414  15.7409  16.0858  16.1085  16.2887  16.2887  16.4814
    16.5683  16.7873  16.7978  16.8685  16.8685  16.9064  16.9064  16.9415
    16.9415  16.9447  17.0414  17.0941  17.1514  17.1514  17.5962  17.6064
    17.6110  17.6369  17.6369  17.8112  17.8126  18.2233  18.4804  18.4805
    18.6303  18.6333

     occupation numbers 
     1.0000   1.0000   1.0000   1.0000   1.0000   1.0000   1.0000   1.0000
     1.0000   1.0000   1.0000   1.0000   1.0000   1.0000   1.0000   1.0000
     1.0000   1.0000   1.0000   1.0000   1.0000   1.0000   1.0000   1.0000
     1.0000   1.0000   1.0000   1.0000   1.0000   1.0000   1.0000   1.0000
     1.0000   1.0000   1.0000   1.0000   1.0000   1.0000   1.0000   1.0000
     1.0000   1.0000   1.0000   1.0000   1.0000   1.0000   1.0000   1.0000
     1.0000   1.0000   1.0000   1.0000   1.0000   1.0000   1.0000   1.0000
     1.0000   1.0000   1.0000   1.0000   1.0000   1.0000   1.0000   1.0000
     1.0000   1.0000   1.0000   1.0000   1.0000   1.0000   1.0000   1.0000
     1.0000   1.0000   1.0000   1.0000   1.0000   1.0000   1.0000   1.0000
     1.0000   1.0000   1.0000   1.0000   1.0000   1.0000   1.0000   1.0000
     1.0000   1.0000   1.0000   1.0000   1.0000   1.0000   1.0000   1.0000
     1.0000   1.0000   1.0000   1.0000   1.0000   1.0000   1.0000   1.0000
     1.0000   1.0000   1.0000   1.0000   1.0000   1.0000   1.0000   1.0000
     1.0000   1.0000   1.0000   1.0000   1.0000   1.0000   1.0000   1.0000
     1.0000   1.0000   1.0000   1.0000   1.0000   1.0000   1.0000   1.0000
     1.0000   1.0000   1.0000   1.0000   1.0000   1.0000   1.0000   1.0000
     1.0000   1.0000   1.0000   1.0000   1.0000   1.0000   1.0000   1.0000
     1.0000   1.0000   1.0000   1.0000   1.0000   1.0000   1.0000   1.0000
     1.0000   1.0000   1.0000   1.0000   1.0000   1.0000   1.0000   1.0000
     1.0000   1.0000   1.0000   1.0000   1.0000   1.0000   1.0000   1.0000
     1.0000   1.0000   1.0000   1.0000   1.0000   1.0000   1.0000   1.0000
     1.0000   1.0000   1.0000   1.0000   1.0000   1.0000   1.0000   1.0000
     1.0000   1.0000   1.0000   1.0000   1.0000   1.0000   1.0000   1.0000
     1.0000   1.0000   1.0000   1.0000   1.0000   1.0000   1.0000   1.0000
     1.0000   1.0000   1.0000   1.0000   1.0000   1.0000   1.0000   1.0000
     1.0000   1.0000   1.0000   1.0000   1.0000   1.0000   1.0000   1.0000
     1.0000   1.0000   1.0000   1.0000   1.0000   1.0000   1.0000   1.0000
     1.0000   1.0000   1.0000   1.0000   1.0000   1.0000   1.0000   1.0000
     1.0000   1.0000   1.0000   1.0000   1.0000   1.0000   1.0000   1.0000
     1.0000   1.0000   1.0000   1.0000   1.0310   1.0310   0.8348   0.8348
     0.2484  -0.0000  -0.0000  -0.0000  -0.0000  -0.0000  -0.0000  -0.0000
    -0.0000  -0.0000  -0.0000  -0.0000  -0.0000  -0.0000  -0.0000  -0.0000
    -0.0000  -0.0000  -0.0000  -0.0000  -0.0000  -0.0000  -0.0000  -0.0000
    -0.0000  -0.0000  -0.0000  -0.0000  -0.0000  -0.0000  -0.0000  -0.0000
    -0.0000  -0.0000  -0.0000  -0.0000  -0.0000  -0.0000  -0.0000  -0.0000
    -0.0000  -0.0000  -0.0000  -0.0000  -0.0000  -0.0000  -0.0000  -0.0000
    -0.0000  -0.0000

     the Fermi energy is    11.1817 ev

!    total energy              =   -6556.69614733 Ry
     estimated scf accuracy    <          9.4E-09 Ry
     smearing contrib. (-TS)   =      -0.00270929 Ry
     internal energy E=F+TS    =   -6556.69343803 Ry

     The total energy is F=E-TS. E is the sum of the following terms:
     one-electron contribution =   -5519.56334855 Ry
     hartree contribution      =    3045.97415970 Ry
     xc contribution           =    -976.03546442 Ry
     ewald contribution        =   -3107.44375877 Ry
     Hubbard energy            =       0.37497401 Ry

     total magnetization       =     0.00 Bohr mag/cell
     absolute magnetization    =     4.59 Bohr mag/cell

     convergence has been achieved in  44 iterations

     Writing all to output data dir ./YBCO6/YBCO6.save/
 
     init_run     :     21.86s CPU     22.97s WALL (       1 calls)
     electrons    :   1677.59s CPU   1769.40s WALL (       1 calls)

     Called by init_run:
     wfcinit      :     17.00s CPU     17.36s WALL (       1 calls)
     wfcinit:atom :      0.07s CPU      0.10s WALL (       4 calls)
     wfcinit:wfcr :     11.36s CPU     11.55s WALL (       4 calls)
     potinit      :      0.42s CPU      0.49s WALL (       1 calls)
     hinit0       :      0.94s CPU      0.97s WALL (       1 calls)

     Called by electrons:
     c_bands      :   1023.75s CPU   1042.04s WALL (      44 calls)
     sum_band     :    478.91s CPU    520.10s WALL (      44 calls)
     v_of_rho     :     16.54s CPU     17.77s WALL (      45 calls)
     v_h          :      0.74s CPU      0.85s WALL (      45 calls)
     v_xc         :     15.79s CPU     16.92s WALL (      45 calls)
     newd         :    156.54s CPU    187.95s WALL (      45 calls)
     mix_rho      :      3.79s CPU      4.05s WALL (      44 calls)

     Called by c_bands:
     init_us_2    :      9.72s CPU      9.78s WALL (     360 calls)
     init_us_2:cp :      9.72s CPU      9.78s WALL (     360 calls)
     cegterg      :    973.76s CPU    991.71s WALL (     176 calls)

     Called by sum_band:
     sum_band:wei :      0.04s CPU      0.04s WALL (      44 calls)
     sum_band:loo :    141.33s CPU    143.31s WALL (      44 calls)
     sum_band:buf :      1.58s CPU      1.59s WALL (     176 calls)
     sum_band:ini :      4.76s CPU      4.77s WALL (     176 calls)
     sum_band:cal :     56.66s CPU     56.92s WALL (     176 calls)
     sum_band:bec :      0.21s CPU      0.21s WALL (     176 calls)
     addusdens    :    328.03s CPU    364.80s WALL (      44 calls)
                                        0.00s GPU  (      44 calls)
     addusd:skk   :      1.34s CPU      1.96s WALL (     264 calls)
                                        0.00s GPU  (     264 calls)

     Called by *egterg:
     cdiaghg      :     41.43s CPU     43.24s WALL (     548 calls)
     cegterg:over :     94.34s CPU     95.30s WALL (     372 calls)
     cegterg:upda :     52.61s CPU     54.29s WALL (     372 calls)
     cegterg:last :    111.01s CPU    111.51s WALL (     278 calls)
     cdiaghg:chol :      0.90s CPU      0.95s WALL (     548 calls)
     cdiaghg:inve :      0.47s CPU      0.54s WALL (     548 calls)
     cdiaghg:para :      8.62s CPU      9.52s WALL (    1096 calls)
     h_psi        :    514.15s CPU    522.56s WALL (     552 calls)
     s_psi        :    126.46s CPU    126.68s WALL (     556 calls)
     g_psi        :      1.62s CPU      1.63s WALL (     372 calls)

     Called by h_psi:
     h_psi:calbec :    123.18s CPU    123.93s WALL (     552 calls)
     vloc_psi     :    223.11s CPU    227.70s WALL (     552 calls)
     add_vuspsi   :    127.58s CPU    127.62s WALL (     552 calls)
     vhpsi        :     37.08s CPU     37.71s WALL (     552 calls)

     General routines
     calbec       :    192.79s CPU    194.46s WALL (    1460 calls)
     fft          :      9.29s CPU     10.24s WALL (    1119 calls)
     ffts         :      0.27s CPU      0.28s WALL (     178 calls)
     fftw         :    152.45s CPU    155.93s WALL (  272246 calls)
     interpolate  :      1.07s CPU      1.14s WALL (      90 calls)
     davcio       :      0.01s CPU      0.03s WALL (       4 calls)
 
     Parallel routines

     Hubbard U routines
     new_ns       :      4.92s CPU      4.95s WALL (      44 calls)
     vhpsi        :     37.08s CPU     37.71s WALL (     552 calls)
 
     PWSCF        :  28m19.77s CPU  29m53.05s WALL

 
   This run was terminated on:  19: 7:49   1Jan2024            

=------------------------------------------------------------------------------=
   JOB DONE.
=------------------------------------------------------------------------------=
