
     Program PWSCF v.7.2 starts on  1Jan2024 at 21:54:13 

     This program is part of the open-source Quantum ESPRESSO suite
     for quantum simulation of materials; please cite
         "P. Giannozzi et al., J. Phys.:Condens. Matter 21 395502 (2009);
         "P. Giannozzi et al., J. Phys.:Condens. Matter 29 465901 (2017);
         "P. Giannozzi et al., J. Chem. Phys. 152 154105 (2020);
          URL http://www.quantum-espresso.org", 
     in publications or presentations arising from this work. More details at
     http://www.quantum-espresso.org/quote

     Parallel version (MPI), running on     4 processors

     MPI processes distributed on     1 nodes
     8334 MiB available memory on the printing compute node when the environment starts
 
     Waiting for input...
     Reading input from standard input
Warning: card &CELL ignored
Warning: card / ignored

     Current dimensions of program PWSCF are:
     Max number of different atomic species (ntypx) = 10
     Max number of k-points (npk) =  40000
     Max angular momentum in pseudopotentials (lmaxx) =  4
     Found identity + ( -0.5000 -0.5000  0.0000) symmetry
     This is a supercell, fractional translations are disabled
 
     R & G space division:  proc/nbgrp/npool/nimage =       4
     Subspace diagonalization in iterative solution of the eigenvalue problem:
     one sub-group per band group will be used
     custom distributed-memory algorithm (size of sub-group:  2*  2 procs)

 
     Parallelization info
     --------------------
     sticks:   dense  smooth     PW     G-vecs:    dense   smooth      PW
     Min        2210     984    252               238514    70654    9320
     Max        2211     985    253               238519    70656    9324
     Sum        8841    3937   1009               954065   282619   37287
 
     Using Slab Decomposition
 


     bravais-lattice index     =            6
     lattice parameter (alat)  =      14.3459  a.u.
     unit-cell volume          =    4502.1906 (a.u.)^3
     number of atoms/cell      =           48
     number of atomic types    =            6
     number of electrons       =       496.00
     number of Kohn-Sham states=          298
     kinetic-energy cutoff     =      60.0000  Ry
     charge density cutoff     =     540.0000  Ry
     scf convergence threshold =      1.0E-08
     mixing beta               =       0.1000
     number of iterations used =            8  plain     mixing
     Exchange-correlation= SLA  PW   PBE  PBE
                           (   1   4   3   4   0   0   0)
     Hubbard projectors: ortho-atomic
     Hubbard parameters of DFT+U (Dudarev formulation) in eV:
     U(Cu1-3d) =  2.5000
     U(Cu2-3d) =  2.5000

     Internal variables: lda_plus_u = T, lda_plus_u_kind = 0

     celldm(1)=  14.345919  celldm(2)=   0.000000  celldm(3)=   1.524891
     celldm(4)=   0.000000  celldm(5)=   0.000000  celldm(6)=   0.000000

     crystal axes: (cart. coord. in units of alat)
               a(1) = (   1.000000   0.000000   0.000000 )  
               a(2) = (   0.000000   1.000000   0.000000 )  
               a(3) = (   0.000000   0.000000   1.524891 )  

     reciprocal axes: (cart. coord. in units 2 pi/alat)
               b(1) = (  1.000000  0.000000  0.000000 )  
               b(2) = (  0.000000  1.000000  0.000000 )  
               b(3) = (  0.000000  0.000000  0.655785 )  


     PseudoPot. # 1 for Y  read from file:
     ~/q-e/pseudo/all_pbe_UPF_v1.5/y_pbe_v1.4.uspp.F.UPF
     MD5 check sum: Not computed, couldn't open file
     Pseudo is Ultrasoft + core correction, Zval = 11.0
     Generated by new atomic code, or converted to UPF format
     Using radial grid of  885 points,  6 beta functions with: 
                l(1) =   0
                l(2) =   0
                l(3) =   1
                l(4) =   1
                l(5) =   2
                l(6) =   2
     Q(r) pseudized with  8 coefficients,  rinner =    1.200   1.200   1.200
                                                       1.200   1.200

     PseudoPot. # 2 for Ba read from file:
     ~/q-e/pseudo/all_pbe_UPF_v1.5/ba_pbe_v1.uspp.F.UPF
     MD5 check sum: Not computed, couldn't open file
     Pseudo is Ultrasoft + core correction, Zval = 10.0
     Generated by new atomic code, or converted to UPF format
     Using radial grid of  907 points,  7 beta functions with: 
                l(1) =   0
                l(2) =   0
                l(3) =   1
                l(4) =   1
                l(5) =   2
                l(6) =   2
                l(7) =   3
     Q(r) pseudized with  6 coefficients,  rinner =    1.700   1.700   1.700
                                                       1.700   1.700   1.700
                                                       1.700

     PseudoPot. # 3 for Cu read from file:
     ~/q-e/pseudo/all_pbe_UPF_v1.5/cu_pbe_v1.2.uspp.F.UPF
     MD5 check sum: Not computed, couldn't open file
     Pseudo is Ultrasoft + core correction, Zval = 19.0
     Generated by new atomic code, or converted to UPF format
     Using radial grid of  867 points,  6 beta functions with: 
                l(1) =   0
                l(2) =   0
                l(3) =   1
                l(4) =   1
                l(5) =   2
                l(6) =   2
     Q(r) pseudized with  8 coefficients,  rinner =    1.150   1.150   1.150
                                                       1.150   1.150

     PseudoPot. # 4 for Cu read from file:
     ~/q-e/pseudo/all_pbe_UPF_v1.5/cu_pbe_v1.2.uspp.F.UPF
     MD5 check sum: Not computed, couldn't open file
     Pseudo is Ultrasoft + core correction, Zval = 19.0
     Generated by new atomic code, or converted to UPF format
     Using radial grid of  867 points,  6 beta functions with: 
                l(1) =   0
                l(2) =   0
                l(3) =   1
                l(4) =   1
                l(5) =   2
                l(6) =   2
     Q(r) pseudized with  8 coefficients,  rinner =    1.150   1.150   1.150
                                                       1.150   1.150

     PseudoPot. # 5 for Cu read from file:
     ~/q-e/pseudo/all_pbe_UPF_v1.5/cu_pbe_v1.2.uspp.F.UPF
     MD5 check sum: Not computed, couldn't open file
     Pseudo is Ultrasoft + core correction, Zval = 19.0
     Generated by new atomic code, or converted to UPF format
     Using radial grid of  867 points,  6 beta functions with: 
                l(1) =   0
                l(2) =   0
                l(3) =   1
                l(4) =   1
                l(5) =   2
                l(6) =   2
     Q(r) pseudized with  8 coefficients,  rinner =    1.150   1.150   1.150
                                                       1.150   1.150

     PseudoPot. # 6 for O  read from file:
     ~/q-e/pseudo/all_pbe_UPF_v1.5/o_pbe_v1.2.uspp.F.UPF
     MD5 check sum: Not computed, couldn't open file
     Pseudo is Ultrasoft + core correction, Zval =  6.0
     Generated by new atomic code, or converted to UPF format
     Using radial grid of  737 points,  5 beta functions with: 
                l(1) =   0
                l(2) =   0
                l(3) =   1
                l(4) =   1
                l(5) =   2
     Q(r) pseudized with  8 coefficients,  rinner =    0.900   0.900   0.900
                                                       0.900   0.900

     atomic species   valence    mass     pseudopotential
     Y                11.00    88.90584     Y ( 1.00)
     Ba               10.00   137.32700     Ba( 1.00)
     Cu               19.00    63.54600     Cu( 1.00)
     Cu1              19.00    63.54600     Cu( 1.00)
     Cu2              19.00    63.54600     Cu( 1.00)
     O                 6.00    15.99900     O ( 1.00)

     Starting magnetic structure 
     atomic species   magnetization
     Y               0.000
     Ba              0.000
     Cu              0.000
     Cu1             0.100
     Cu2            -0.100
     O               0.000

      8 Sym. Ops. (no inversion) found


                                    s                        frac. trans.

      isym =  1     identity                                     

 cryst.   s( 1) = (     1          0          0      )
                  (     0          1          0      )
                  (     0          0          1      )

 cart.    s( 1) = (  1.0000000  0.0000000  0.0000000 )
                  (  0.0000000  1.0000000  0.0000000 )
                  (  0.0000000  0.0000000  1.0000000 )


      isym =  2     180 deg rotation - cart. axis [0,0,1]        

 cryst.   s( 2) = (    -1          0          0      )
                  (     0         -1          0      )
                  (     0          0          1      )

 cart.    s( 2) = ( -1.0000000  0.0000000  0.0000000 )
                  (  0.0000000 -1.0000000  0.0000000 )
                  (  0.0000000  0.0000000  1.0000000 )


      isym =  3      90 deg rotation - cart. axis [0,0,-1]       

 cryst.   s( 3) = (     0         -1          0      )
                  (     1          0          0      )
                  (     0          0          1      )

 cart.    s( 3) = (  0.0000000  1.0000000  0.0000000 )
                  ( -1.0000000  0.0000000  0.0000000 )
                  (  0.0000000  0.0000000  1.0000000 )


      isym =  4      90 deg rotation - cart. axis [0,0,1]        

 cryst.   s( 4) = (     0          1          0      )
                  (    -1          0          0      )
                  (     0          0          1      )

 cart.    s( 4) = (  0.0000000 -1.0000000  0.0000000 )
                  (  1.0000000  0.0000000  0.0000000 )
                  (  0.0000000  0.0000000  1.0000000 )


      isym =  5     inv. 180 deg rotation - cart. axis [0,1,0]   

 cryst.   s( 5) = (     1          0          0      )
                  (     0         -1          0      )
                  (     0          0          1      )

 cart.    s( 5) = (  1.0000000  0.0000000  0.0000000 )
                  (  0.0000000 -1.0000000  0.0000000 )
                  (  0.0000000  0.0000000  1.0000000 )


      isym =  6     inv. 180 deg rotation - cart. axis [1,0,0]   

 cryst.   s( 6) = (    -1          0          0      )
                  (     0          1          0      )
                  (     0          0          1      )

 cart.    s( 6) = ( -1.0000000  0.0000000  0.0000000 )
                  (  0.0000000  1.0000000  0.0000000 )
                  (  0.0000000  0.0000000  1.0000000 )


      isym =  7     inv. 180 deg rotation - cart. axis [1,1,0]   

 cryst.   s( 7) = (     0         -1          0      )
                  (    -1          0          0      )
                  (     0          0          1      )

 cart.    s( 7) = (  0.0000000 -1.0000000  0.0000000 )
                  ( -1.0000000  0.0000000  0.0000000 )
                  (  0.0000000  0.0000000  1.0000000 )


      isym =  8     inv. 180 deg rotation - cart. axis [1,-1,0]  

 cryst.   s( 8) = (     0          1          0      )
                  (     1          0          0      )
                  (     0          0          1      )

 cart.    s( 8) = (  0.0000000  1.0000000  0.0000000 )
                  (  1.0000000  0.0000000  0.0000000 )
                  (  0.0000000  0.0000000  1.0000000 )


     point group C_4v (4mm) 
     there are  5 classes
     the character table:

       E     2C4   C2    2s_v  2s_d 
A_1    1.00  1.00  1.00  1.00  1.00
A_2    1.00  1.00  1.00 -1.00 -1.00
B_1    1.00 -1.00  1.00  1.00 -1.00
B_2    1.00 -1.00  1.00 -1.00  1.00
E      2.00  0.00 -2.00  0.00  0.00

     the symmetry operations in each class and the name of the first element:

     E        1
          identity                                               
     2C4      3    4
           90 deg rotation - cart. axis [0,0,-1]                 
     C2       2
          180 deg rotation - cart. axis [0,0,1]                  
     2s_v     5    6
          inv. 180 deg rotation - cart. axis [0,1,0]             
     2s_d     7    8
          inv. 180 deg rotation - cart. axis [1,1,0]             

   Cartesian axes

     site n.     atom                  positions (alat units)
         1        Y      tau(   1) = (   0.2500000   0.2500000   0.7624455  )
         2        Y      tau(   2) = (   0.2500000   0.7500000   0.7624455  )
         3        Y      tau(   3) = (   0.7500000   0.2500000   0.7624455  )
         4        Y      tau(   4) = (   0.7500000   0.7500000   0.7624455  )
         5        Ba     tau(   5) = (   0.2500000   0.2500000   0.2966571  )
         6        Ba     tau(   6) = (   0.2500000   0.2500000   1.2282339  )
         7        Ba     tau(   7) = (   0.2500000   0.7500000   0.2966571  )
         8        Ba     tau(   8) = (   0.2500000   0.7500000   1.2282339  )
         9        Ba     tau(   9) = (   0.7500000   0.2500000   0.2966571  )
        10        Ba     tau(  10) = (   0.7500000   0.2500000   1.2282339  )
        11        Ba     tau(  11) = (   0.7500000   0.7500000   0.2966571  )
        12        Ba     tau(  12) = (   0.7500000   0.7500000   1.2282339  )
        13        Cu     tau(  13) = (   0.0000000   0.0000000   0.0000000  )
        14        Cu1    tau(  14) = (   0.0000000   0.0000000   0.5526369  )
        15        Cu2    tau(  15) = (   0.0000000   0.0000000   0.9722541  )
        16        Cu     tau(  16) = (   0.0000000   0.5000000   0.0000000  )
        17        Cu2    tau(  17) = (   0.0000000   0.5000000   0.5526369  )
        18        Cu1    tau(  18) = (   0.0000000   0.5000000   0.9722541  )
        19        Cu     tau(  19) = (   0.5000000   0.0000000   0.0000000  )
        20        Cu2    tau(  20) = (   0.5000000   0.0000000   0.5526369  )
        21        Cu1    tau(  21) = (   0.5000000   0.0000000   0.9722541  )
        22        Cu     tau(  22) = (   0.5000000   0.5000000   0.0000000  )
        23        Cu1    tau(  23) = (   0.5000000   0.5000000   0.5526369  )
        24        Cu2    tau(  24) = (   0.5000000   0.5000000   0.9722541  )
        25        O      tau(  25) = (   0.0000000   0.0000000   0.2314064  )
        26        O      tau(  26) = (   0.0000000   0.0000000   1.2934846  )
        27        O      tau(  27) = (   0.5000000   0.0000000   0.2314064  )
        28        O      tau(  28) = (   0.5000000   0.0000000   1.2934846  )
        29        O      tau(  29) = (   0.0000000   0.5000000   0.2314064  )
        30        O      tau(  30) = (   0.0000000   0.5000000   1.2934846  )
        31        O      tau(  31) = (   0.5000000   0.5000000   0.2314064  )
        32        O      tau(  32) = (   0.5000000   0.5000000   1.2934846  )
        33        O      tau(  33) = (   0.2500000   0.0000000   0.5769788  )
        34        O      tau(  34) = (   0.2500000   0.0000000   0.9479122  )
        35        O      tau(  35) = (   0.2500000   0.5000000   0.5769788  )
        36        O      tau(  36) = (   0.2500000   0.5000000   0.9479122  )
        37        O      tau(  37) = (   0.7500000   0.0000000   0.5769788  )
        38        O      tau(  38) = (   0.7500000   0.0000000   0.9479122  )
        39        O      tau(  39) = (   0.7500000   0.5000000   0.5769788  )
        40        O      tau(  40) = (   0.7500000   0.5000000   0.9479122  )
        41        O      tau(  41) = (   0.0000000   0.2500000   0.5769788  )
        42        O      tau(  42) = (   0.0000000   0.2500000   0.9479122  )
        43        O      tau(  43) = (   0.5000000   0.2500000   0.5769788  )
        44        O      tau(  44) = (   0.5000000   0.2500000   0.9479122  )
        45        O      tau(  45) = (   0.0000000   0.7500000   0.5769788  )
        46        O      tau(  46) = (   0.0000000   0.7500000   0.9479122  )
        47        O      tau(  47) = (   0.5000000   0.7500000   0.5769788  )
        48        O      tau(  48) = (   0.5000000   0.7500000   0.9479122  )

   Crystallographic axes

     site n.     atom                  positions (cryst. coord.)
         1        Y      tau(   1) = (  0.2500000  0.2500000  0.5000000  )
         2        Y      tau(   2) = (  0.2500000  0.7500000  0.5000000  )
         3        Y      tau(   3) = (  0.7500000  0.2500000  0.5000000  )
         4        Y      tau(   4) = (  0.7500000  0.7500000  0.5000000  )
         5        Ba     tau(   5) = (  0.2500000  0.2500000  0.1945431  )
         6        Ba     tau(   6) = (  0.2500000  0.2500000  0.8054569  )
         7        Ba     tau(   7) = (  0.2500000  0.7500000  0.1945431  )
         8        Ba     tau(   8) = (  0.2500000  0.7500000  0.8054569  )
         9        Ba     tau(   9) = (  0.7500000  0.2500000  0.1945431  )
        10        Ba     tau(  10) = (  0.7500000  0.2500000  0.8054569  )
        11        Ba     tau(  11) = (  0.7500000  0.7500000  0.1945431  )
        12        Ba     tau(  12) = (  0.7500000  0.7500000  0.8054569  )
        13        Cu     tau(  13) = (  0.0000000  0.0000000  0.0000000  )
        14        Cu1    tau(  14) = (  0.0000000  0.0000000  0.3624108  )
        15        Cu2    tau(  15) = (  0.0000000  0.0000000  0.6375892  )
        16        Cu     tau(  16) = (  0.0000000  0.5000000  0.0000000  )
        17        Cu2    tau(  17) = (  0.0000000  0.5000000  0.3624108  )
        18        Cu1    tau(  18) = (  0.0000000  0.5000000  0.6375892  )
        19        Cu     tau(  19) = (  0.5000000  0.0000000  0.0000000  )
        20        Cu2    tau(  20) = (  0.5000000  0.0000000  0.3624108  )
        21        Cu1    tau(  21) = (  0.5000000  0.0000000  0.6375892  )
        22        Cu     tau(  22) = (  0.5000000  0.5000000  0.0000000  )
        23        Cu1    tau(  23) = (  0.5000000  0.5000000  0.3624108  )
        24        Cu2    tau(  24) = (  0.5000000  0.5000000  0.6375892  )
        25        O      tau(  25) = (  0.0000000  0.0000000  0.1517528  )
        26        O      tau(  26) = (  0.0000000  0.0000000  0.8482472  )
        27        O      tau(  27) = (  0.5000000  0.0000000  0.1517528  )
        28        O      tau(  28) = (  0.5000000  0.0000000  0.8482472  )
        29        O      tau(  29) = (  0.0000000  0.5000000  0.1517528  )
        30        O      tau(  30) = (  0.0000000  0.5000000  0.8482472  )
        31        O      tau(  31) = (  0.5000000  0.5000000  0.1517528  )
        32        O      tau(  32) = (  0.5000000  0.5000000  0.8482472  )
        33        O      tau(  33) = (  0.2500000  0.0000000  0.3783738  )
        34        O      tau(  34) = (  0.2500000  0.0000000  0.6216262  )
        35        O      tau(  35) = (  0.2500000  0.5000000  0.3783738  )
        36        O      tau(  36) = (  0.2500000  0.5000000  0.6216262  )
        37        O      tau(  37) = (  0.7500000  0.0000000  0.3783738  )
        38        O      tau(  38) = (  0.7500000  0.0000000  0.6216262  )
        39        O      tau(  39) = (  0.7500000  0.5000000  0.3783738  )
        40        O      tau(  40) = (  0.7500000  0.5000000  0.6216262  )
        41        O      tau(  41) = (  0.0000000  0.2500000  0.3783738  )
        42        O      tau(  42) = (  0.0000000  0.2500000  0.6216262  )
        43        O      tau(  43) = (  0.5000000  0.2500000  0.3783738  )
        44        O      tau(  44) = (  0.5000000  0.2500000  0.6216262  )
        45        O      tau(  45) = (  0.0000000  0.7500000  0.3783738  )
        46        O      tau(  46) = (  0.0000000  0.7500000  0.6216262  )
        47        O      tau(  47) = (  0.5000000  0.7500000  0.3783738  )
        48        O      tau(  48) = (  0.5000000  0.7500000  0.6216262  )

     number of k points=     2  Methfessel-Paxton smearing, width (Ry)=  0.0100
                       cart. coord. in units 2pi/alat
        k(    1) = (   0.0000000   0.0000000   0.0000000), wk =   0.5000000
        k(    2) = (   0.0000000   0.0000000  -0.3278923), wk =   0.5000000

                       cryst. coord.
        k(    1) = (   0.0000000   0.0000000   0.0000000), wk =   0.5000000
        k(    2) = (   0.0000000   0.0000000  -0.5000000), wk =   0.5000000

     Dense  grid:   954065 G-vectors     FFT dimensions: ( 108, 108, 162)

     Smooth grid:   282619 G-vectors     FFT dimensions: (  72,  72, 108)

     Dynamical RAM for                 wfc:      40.16 MB

     Dynamical RAM for     wfc (w. buffer):     200.82 MB

     Dynamical RAM for             U proj.:       5.39 MB

     Dynamical RAM for  U proj. (w. buff.):      26.96 MB

     Dynamical RAM for           str. fact:      21.84 MB

     Dynamical RAM for           local pot:       0.00 MB

     Dynamical RAM for          nlocal pot:     107.82 MB

     Dynamical RAM for                qrad:      20.88 MB

     Dynamical RAM for          rho,v,vnew:      43.73 MB

     Dynamical RAM for               rhoin:      14.58 MB

     Dynamical RAM for            rho*nmix:     116.46 MB

     Dynamical RAM for           G-vectors:      14.19 MB

     Dynamical RAM for          h,s,v(r/c):       4.07 MB

     Dynamical RAM for          <psi|beta>:       3.64 MB

     Dynamical RAM for                 psi:      80.33 MB

     Dynamical RAM for                hpsi:      80.33 MB

     Dynamical RAM for                spsi:      80.33 MB

     Dynamical RAM for      wfcinit/wfcrot:     113.79 MB

     Dynamical RAM for           addusdens:    1372.08 MB

     Estimated static dynamical RAM per process >     498.18 MB

     Estimated max dynamical RAM per process >       1.94 GB

     Estimated total dynamical RAM >       7.76 GB

     Check: negative core charge=   -0.000002
     Generating pointlists ...
     new r_m :   0.1284 (alat units)  1.8421 (a.u.) for type    1
     new r_m :   0.1483 (alat units)  2.1276 (a.u.) for type    2
     new r_m :   0.0955 (alat units)  1.3694 (a.u.) for type    3
     new r_m :   0.1036 (alat units)  1.4864 (a.u.) for type    4
     new r_m :   0.1036 (alat units)  1.4864 (a.u.) for type    5
     new r_m :   0.0955 (alat units)  1.3694 (a.u.) for type    6

     Initial potential from superposition of free atoms

     starting charge     483.8621, renormalised to     496.0000

     negative rho (up, down):  3.865E-01 3.865E-01

     HUBBARD ENERGY =    0.8820  (Ry)

     STARTING HUBBARD OCCUPATIONS:

     =================== HUBBARD OCCUPATIONS ===================
     ------------------------ ATOM   14 ------------------------
     Tr[ns( 14)] (up, down, total) =   5.00000  3.00000  8.00000
     Atomic magnetic moment for atom  14 =   2.00000
     SPIN  1
     eigenvalues:
       1.000  1.000  1.000  1.000  1.000
     eigenvectors (columns):
       1.000  0.000  0.000  0.000  0.000
       0.000  1.000  0.000  0.000  0.000
       0.000  0.000  1.000  0.000  0.000
       0.000  0.000  0.000  1.000  0.000
       0.000  0.000  0.000  0.000  1.000
     occupation matrix ns (before diag.):
       1.000  0.000  0.000  0.000  0.000
       0.000  1.000  0.000  0.000  0.000
       0.000  0.000  1.000  0.000  0.000
       0.000  0.000  0.000  1.000  0.000
       0.000  0.000  0.000  0.000  1.000
     SPIN  2
     eigenvalues:
       0.600  0.600  0.600  0.600  0.600
     eigenvectors (columns):
       1.000  0.000  0.000  0.000  0.000
       0.000  1.000  0.000  0.000  0.000
       0.000  0.000  1.000  0.000  0.000
       0.000  0.000  0.000  1.000  0.000
       0.000  0.000  0.000  0.000  1.000
     occupation matrix ns (before diag.):
       0.600  0.000  0.000  0.000  0.000
       0.000  0.600  0.000  0.000  0.000
       0.000  0.000  0.600  0.000  0.000
       0.000  0.000  0.000  0.600  0.000
       0.000  0.000  0.000  0.000  0.600
     ------------------------ ATOM   15 ------------------------
     Tr[ns( 15)] (up, down, total) =   3.00000  5.00000  8.00000
     Atomic magnetic moment for atom  15 =  -2.00000
     SPIN  1
     eigenvalues:
       0.600  0.600  0.600  0.600  0.600
     eigenvectors (columns):
       1.000  0.000  0.000  0.000  0.000
       0.000  1.000  0.000  0.000  0.000
       0.000  0.000  1.000  0.000  0.000
       0.000  0.000  0.000  1.000  0.000
       0.000  0.000  0.000  0.000  1.000
     occupation matrix ns (before diag.):
       0.600  0.000  0.000  0.000  0.000
       0.000  0.600  0.000  0.000  0.000
       0.000  0.000  0.600  0.000  0.000
       0.000  0.000  0.000  0.600  0.000
       0.000  0.000  0.000  0.000  0.600
     SPIN  2
     eigenvalues:
       1.000  1.000  1.000  1.000  1.000
     eigenvectors (columns):
       1.000  0.000  0.000  0.000  0.000
       0.000  1.000  0.000  0.000  0.000
       0.000  0.000  1.000  0.000  0.000
       0.000  0.000  0.000  1.000  0.000
       0.000  0.000  0.000  0.000  1.000
     occupation matrix ns (before diag.):
       1.000  0.000  0.000  0.000  0.000
       0.000  1.000  0.000  0.000  0.000
       0.000  0.000  1.000  0.000  0.000
       0.000  0.000  0.000  1.000  0.000
       0.000  0.000  0.000  0.000  1.000
     ------------------------ ATOM   17 ------------------------
     Tr[ns( 17)] (up, down, total) =   3.00000  5.00000  8.00000
     Atomic magnetic moment for atom  17 =  -2.00000
     SPIN  1
     eigenvalues:
       0.600  0.600  0.600  0.600  0.600
     eigenvectors (columns):
       1.000  0.000  0.000  0.000  0.000
       0.000  1.000  0.000  0.000  0.000
       0.000  0.000  1.000  0.000  0.000
       0.000  0.000  0.000  1.000  0.000
       0.000  0.000  0.000  0.000  1.000
     occupation matrix ns (before diag.):
       0.600  0.000  0.000  0.000  0.000
       0.000  0.600  0.000  0.000  0.000
       0.000  0.000  0.600  0.000  0.000
       0.000  0.000  0.000  0.600  0.000
       0.000  0.000  0.000  0.000  0.600
     SPIN  2
     eigenvalues:
       1.000  1.000  1.000  1.000  1.000
     eigenvectors (columns):
       1.000  0.000  0.000  0.000  0.000
       0.000  1.000  0.000  0.000  0.000
       0.000  0.000  1.000  0.000  0.000
       0.000  0.000  0.000  1.000  0.000
       0.000  0.000  0.000  0.000  1.000
     occupation matrix ns (before diag.):
       1.000  0.000  0.000  0.000  0.000
       0.000  1.000  0.000  0.000  0.000
       0.000  0.000  1.000  0.000  0.000
       0.000  0.000  0.000  1.000  0.000
       0.000  0.000  0.000  0.000  1.000
     ------------------------ ATOM   18 ------------------------
     Tr[ns( 18)] (up, down, total) =   5.00000  3.00000  8.00000
     Atomic magnetic moment for atom  18 =   2.00000
     SPIN  1
     eigenvalues:
       1.000  1.000  1.000  1.000  1.000
     eigenvectors (columns):
       1.000  0.000  0.000  0.000  0.000
       0.000  1.000  0.000  0.000  0.000
       0.000  0.000  1.000  0.000  0.000
       0.000  0.000  0.000  1.000  0.000
       0.000  0.000  0.000  0.000  1.000
     occupation matrix ns (before diag.):
       1.000  0.000  0.000  0.000  0.000
       0.000  1.000  0.000  0.000  0.000
       0.000  0.000  1.000  0.000  0.000
       0.000  0.000  0.000  1.000  0.000
       0.000  0.000  0.000  0.000  1.000
     SPIN  2
     eigenvalues:
       0.600  0.600  0.600  0.600  0.600
     eigenvectors (columns):
       1.000  0.000  0.000  0.000  0.000
       0.000  1.000  0.000  0.000  0.000
       0.000  0.000  1.000  0.000  0.000
       0.000  0.000  0.000  1.000  0.000
       0.000  0.000  0.000  0.000  1.000
     occupation matrix ns (before diag.):
       0.600  0.000  0.000  0.000  0.000
       0.000  0.600  0.000  0.000  0.000
       0.000  0.000  0.600  0.000  0.000
       0.000  0.000  0.000  0.600  0.000
       0.000  0.000  0.000  0.000  0.600
     ------------------------ ATOM   20 ------------------------
     Tr[ns( 20)] (up, down, total) =   3.00000  5.00000  8.00000
     Atomic magnetic moment for atom  20 =  -2.00000
     SPIN  1
     eigenvalues:
       0.600  0.600  0.600  0.600  0.600
     eigenvectors (columns):
       1.000  0.000  0.000  0.000  0.000
       0.000  1.000  0.000  0.000  0.000
       0.000  0.000  1.000  0.000  0.000
       0.000  0.000  0.000  1.000  0.000
       0.000  0.000  0.000  0.000  1.000
     occupation matrix ns (before diag.):
       0.600  0.000  0.000  0.000  0.000
       0.000  0.600  0.000  0.000  0.000
       0.000  0.000  0.600  0.000  0.000
       0.000  0.000  0.000  0.600  0.000
       0.000  0.000  0.000  0.000  0.600
     SPIN  2
     eigenvalues:
       1.000  1.000  1.000  1.000  1.000
     eigenvectors (columns):
       1.000  0.000  0.000  0.000  0.000
       0.000  1.000  0.000  0.000  0.000
       0.000  0.000  1.000  0.000  0.000
       0.000  0.000  0.000  1.000  0.000
       0.000  0.000  0.000  0.000  1.000
     occupation matrix ns (before diag.):
       1.000  0.000  0.000  0.000  0.000
       0.000  1.000  0.000  0.000  0.000
       0.000  0.000  1.000  0.000  0.000
       0.000  0.000  0.000  1.000  0.000
       0.000  0.000  0.000  0.000  1.000
     ------------------------ ATOM   21 ------------------------
     Tr[ns( 21)] (up, down, total) =   5.00000  3.00000  8.00000
     Atomic magnetic moment for atom  21 =   2.00000
     SPIN  1
     eigenvalues:
       1.000  1.000  1.000  1.000  1.000
     eigenvectors (columns):
       1.000  0.000  0.000  0.000  0.000
       0.000  1.000  0.000  0.000  0.000
       0.000  0.000  1.000  0.000  0.000
       0.000  0.000  0.000  1.000  0.000
       0.000  0.000  0.000  0.000  1.000
     occupation matrix ns (before diag.):
       1.000  0.000  0.000  0.000  0.000
       0.000  1.000  0.000  0.000  0.000
       0.000  0.000  1.000  0.000  0.000
       0.000  0.000  0.000  1.000  0.000
       0.000  0.000  0.000  0.000  1.000
     SPIN  2
     eigenvalues:
       0.600  0.600  0.600  0.600  0.600
     eigenvectors (columns):
       1.000  0.000  0.000  0.000  0.000
       0.000  1.000  0.000  0.000  0.000
       0.000  0.000  1.000  0.000  0.000
       0.000  0.000  0.000  1.000  0.000
       0.000  0.000  0.000  0.000  1.000
     occupation matrix ns (before diag.):
       0.600  0.000  0.000  0.000  0.000
       0.000  0.600  0.000  0.000  0.000
       0.000  0.000  0.600  0.000  0.000
       0.000  0.000  0.000  0.600  0.000
       0.000  0.000  0.000  0.000  0.600
     ------------------------ ATOM   23 ------------------------
     Tr[ns( 23)] (up, down, total) =   5.00000  3.00000  8.00000
     Atomic magnetic moment for atom  23 =   2.00000
     SPIN  1
     eigenvalues:
       1.000  1.000  1.000  1.000  1.000
     eigenvectors (columns):
       1.000  0.000  0.000  0.000  0.000
       0.000  1.000  0.000  0.000  0.000
       0.000  0.000  1.000  0.000  0.000
       0.000  0.000  0.000  1.000  0.000
       0.000  0.000  0.000  0.000  1.000
     occupation matrix ns (before diag.):
       1.000  0.000  0.000  0.000  0.000
       0.000  1.000  0.000  0.000  0.000
       0.000  0.000  1.000  0.000  0.000
       0.000  0.000  0.000  1.000  0.000
       0.000  0.000  0.000  0.000  1.000
     SPIN  2
     eigenvalues:
       0.600  0.600  0.600  0.600  0.600
     eigenvectors (columns):
       1.000  0.000  0.000  0.000  0.000
       0.000  1.000  0.000  0.000  0.000
       0.000  0.000  1.000  0.000  0.000
       0.000  0.000  0.000  1.000  0.000
       0.000  0.000  0.000  0.000  1.000
     occupation matrix ns (before diag.):
       0.600  0.000  0.000  0.000  0.000
       0.000  0.600  0.000  0.000  0.000
       0.000  0.000  0.600  0.000  0.000
       0.000  0.000  0.000  0.600  0.000
       0.000  0.000  0.000  0.000  0.600
     ------------------------ ATOM   24 ------------------------
     Tr[ns( 24)] (up, down, total) =   3.00000  5.00000  8.00000
     Atomic magnetic moment for atom  24 =  -2.00000
     SPIN  1
     eigenvalues:
       0.600  0.600  0.600  0.600  0.600
     eigenvectors (columns):
       1.000  0.000  0.000  0.000  0.000
       0.000  1.000  0.000  0.000  0.000
       0.000  0.000  1.000  0.000  0.000
       0.000  0.000  0.000  1.000  0.000
       0.000  0.000  0.000  0.000  1.000
     occupation matrix ns (before diag.):
       0.600  0.000  0.000  0.000  0.000
       0.000  0.600  0.000  0.000  0.000
       0.000  0.000  0.600  0.000  0.000
       0.000  0.000  0.000  0.600  0.000
       0.000  0.000  0.000  0.000  0.600
     SPIN  2
     eigenvalues:
       1.000  1.000  1.000  1.000  1.000
     eigenvectors (columns):
       1.000  0.000  0.000  0.000  0.000
       0.000  1.000  0.000  0.000  0.000
       0.000  0.000  1.000  0.000  0.000
       0.000  0.000  0.000  1.000  0.000
       0.000  0.000  0.000  0.000  1.000
     occupation matrix ns (before diag.):
       1.000  0.000  0.000  0.000  0.000
       0.000  1.000  0.000  0.000  0.000
       0.000  0.000  1.000  0.000  0.000
       0.000  0.000  0.000  1.000  0.000
       0.000  0.000  0.000  0.000  1.000

     Number of occupied Hubbard levels =   64.0000

     Atomic wfc used for Hubbard projectors are orthogonalized

     Starting wfcs are  408 randomized atomic wfcs

     total cpu time spent up to now is       21.4 secs

     Self-consistent Calculation

     iteration #  1     ecut=    60.00 Ry     beta= 0.10
     Davidson diagonalization with overlap

---- Real-time Memory Report at c_bands before calling an iterative solver
          1555 MiB given to the printing process from OS
             0 MiB allocation reported by mallinfo(arena+hblkhd)
          6069 MiB available memory on the node where the printing process lives
------------------
     ethr =  1.00E-02,  avg # of iterations =  2.0

     =================== HUBBARD OCCUPATIONS ===================
     ------------------------ ATOM   14 ------------------------
     Tr[ns( 14)] (up, down, total) =   4.85511  4.12004  8.97516
     Atomic magnetic moment for atom  14 =   0.73507
     SPIN  1
     eigenvalues:
       0.940  0.958  0.984  0.984  0.989
     eigenvectors (columns):
      -0.000  1.000 -0.000 -0.000  0.000
      -0.000  0.000  0.304  0.953  0.000
      -0.000  0.000  0.953 -0.304  0.000
       1.000  0.000  0.000  0.000 -0.000
       0.000 -0.000 -0.000 -0.000  1.000
     occupation matrix ns (before diag.):
       0.958 -0.000 -0.000  0.000  0.000
      -0.000  0.984 -0.000  0.000  0.000
      -0.000 -0.000  0.984  0.000  0.000
       0.000  0.000  0.000  0.940 -0.000
       0.000  0.000  0.000 -0.000  0.989
     SPIN  2
     eigenvalues:
       0.335  0.869  0.968  0.968  0.979
     eigenvectors (columns):
      -0.000  1.000 -0.000 -0.000  0.000
      -0.000  0.000  0.344  0.939  0.000
      -0.000  0.000  0.939 -0.344  0.000
       1.000  0.000  0.000  0.000 -0.000
       0.000 -0.000 -0.000 -0.000  1.000
     occupation matrix ns (before diag.):
       0.869 -0.000 -0.000 -0.000  0.000
      -0.000  0.968 -0.000  0.000  0.000
      -0.000 -0.000  0.968  0.000  0.000
      -0.000  0.000  0.000  0.335 -0.000
       0.000  0.000  0.000 -0.000  0.979
     ------------------------ ATOM   15 ------------------------
     Tr[ns( 15)] (up, down, total) =   4.12023  4.85523  8.97545
     Atomic magnetic moment for atom  15 =  -0.73500
     SPIN  1
     eigenvalues:
       0.335  0.869  0.968  0.968  0.979
     eigenvectors (columns):
      -0.000  1.000 -0.000 -0.000  0.000
      -0.000  0.000  0.322  0.947  0.000
      -0.000  0.000  0.947 -0.322  0.000
       1.000  0.000  0.000  0.000 -0.000
       0.000 -0.000 -0.000 -0.000  1.000
     occupation matrix ns (before diag.):
       0.869 -0.000 -0.000 -0.000  0.000
      -0.000  0.968 -0.000  0.000  0.000
      -0.000 -0.000  0.968  0.000  0.000
      -0.000  0.000  0.000  0.335 -0.000
       0.000  0.000  0.000 -0.000  0.979
     SPIN  2
     eigenvalues:
       0.940  0.958  0.984  0.984  0.989
     eigenvectors (columns):
      -0.000  1.000 -0.000 -0.000  0.000
      -0.000  0.000  0.334  0.943  0.000
      -0.000  0.000  0.943 -0.334  0.000
       1.000  0.000  0.000  0.000 -0.000
       0.000 -0.000 -0.000 -0.000  1.000
     occupation matrix ns (before diag.):
       0.958 -0.000 -0.000  0.000  0.000
      -0.000  0.984 -0.000  0.000  0.000
      -0.000 -0.000  0.984  0.000  0.000
       0.000  0.000  0.000  0.940 -0.000
       0.000  0.000  0.000 -0.000  0.989
     ------------------------ ATOM   17 ------------------------
     Tr[ns( 17)] (up, down, total) =   4.12009  4.85507  8.97516
     Atomic magnetic moment for atom  17 =  -0.73498
     SPIN  1
     eigenvalues:
       0.335  0.869  0.968  0.968  0.979
     eigenvectors (columns):
       0.000  1.000 -0.000 -0.000  0.000
      -0.000  0.000  1.000 -0.000  0.000
      -0.000  0.000  0.000  1.000  0.000
       1.000 -0.000  0.000  0.000 -0.000
       0.000 -0.000 -0.000 -0.000  1.000
     occupation matrix ns (before diag.):
       0.869 -0.000 -0.000 -0.000  0.000
      -0.000  0.968 -0.000  0.000  0.000
      -0.000 -0.000  0.968  0.000  0.000
      -0.000  0.000  0.000  0.335 -0.000
       0.000  0.000  0.000 -0.000  0.979
     SPIN  2
     eigenvalues:
       0.940  0.958  0.984  0.984  0.989
     eigenvectors (columns):
      -0.000  1.000 -0.000 -0.000  0.000
      -0.000  0.000  1.000 -0.000  0.000
      -0.000  0.000  0.000  1.000  0.000
       1.000  0.000  0.000  0.000 -0.000
       0.000 -0.000 -0.000 -0.000  1.000
     occupation matrix ns (before diag.):
       0.958 -0.000 -0.000  0.000  0.000
      -0.000  0.984 -0.000  0.000  0.000
      -0.000 -0.000  0.984  0.000  0.000
       0.000  0.000  0.000  0.940 -0.000
       0.000  0.000  0.000 -0.000  0.989
     ------------------------ ATOM   18 ------------------------
     Tr[ns( 18)] (up, down, total) =   4.85517  4.11992  8.97509
     Atomic magnetic moment for atom  18 =   0.73524
     SPIN  1
     eigenvalues:
       0.940  0.958  0.984  0.984  0.989
     eigenvectors (columns):
      -0.001  1.000 -0.000 -0.000  0.000
      -0.000  0.000  1.000 -0.000  0.000
      -0.000  0.000  0.000  1.000  0.000
       1.000  0.001  0.000  0.000 -0.000
       0.000 -0.000 -0.000 -0.000  1.000
     occupation matrix ns (before diag.):
       0.958 -0.000 -0.000  0.000  0.000
      -0.000  0.984 -0.000  0.000  0.000
      -0.000 -0.000  0.984  0.000  0.000
       0.000  0.000  0.000  0.940 -0.000
       0.000  0.000  0.000 -0.000  0.989
     SPIN  2
     eigenvalues:
       0.335  0.869  0.968  0.968  0.979
     eigenvectors (columns):
      -0.000  1.000 -0.000 -0.000  0.000
      -0.000  0.000  0.000  1.000  0.000
      -0.000  0.000  1.000 -0.000  0.000
       1.000  0.000  0.000  0.000 -0.000
       0.000 -0.000 -0.000 -0.000  1.000
     occupation matrix ns (before diag.):
       0.869 -0.000 -0.000  0.000  0.000
      -0.000  0.968 -0.000  0.000  0.000
      -0.000 -0.000  0.968  0.000  0.000
       0.000  0.000  0.000  0.335 -0.000
       0.000  0.000  0.000 -0.000  0.979
     ------------------------ ATOM   20 ------------------------
     Tr[ns( 20)] (up, down, total) =   4.12009  4.85507  8.97516
     Atomic magnetic moment for atom  20 =  -0.73498
     SPIN  1
     eigenvalues:
       0.335  0.869  0.968  0.968  0.979
     eigenvectors (columns):
      -0.000  1.000 -0.000 -0.000  0.000
      -0.000  0.000  0.000  1.000  0.000
      -0.000  0.000  1.000 -0.000  0.000
       1.000  0.000  0.000  0.000 -0.000
       0.000 -0.000 -0.000 -0.000  1.000
     occupation matrix ns (before diag.):
       0.869 -0.000 -0.000  0.000  0.000
      -0.000  0.968 -0.000  0.000  0.000
      -0.000 -0.000  0.968  0.000  0.000
       0.000  0.000  0.000  0.335 -0.000
       0.000  0.000  0.000 -0.000  0.979
     SPIN  2
     eigenvalues:
       0.940  0.958  0.984  0.984  0.989
     eigenvectors (columns):
       0.000  1.000 -0.000 -0.000  0.000
      -0.000  0.000  0.000  1.000  0.000
      -0.000  0.000  1.000 -0.000  0.000
       1.000 -0.000  0.000  0.000 -0.000
       0.000 -0.000 -0.000 -0.000  1.000
     occupation matrix ns (before diag.):
       0.958 -0.000 -0.000 -0.000  0.000
      -0.000  0.984 -0.000  0.000  0.000
      -0.000 -0.000  0.984  0.000  0.000
      -0.000  0.000  0.000  0.940 -0.000
       0.000  0.000  0.000 -0.000  0.989
     ------------------------ ATOM   21 ------------------------
     Tr[ns( 21)] (up, down, total) =   4.85517  4.11992  8.97509
     Atomic magnetic moment for atom  21 =   0.73524
     SPIN  1
     eigenvalues:
       0.940  0.958  0.984  0.984  0.989
     eigenvectors (columns):
       0.001  1.000 -0.000 -0.000  0.000
      -0.000  0.000  0.000  1.000  0.000
      -0.000  0.000  1.000 -0.000  0.000
       1.000 -0.001  0.000  0.000 -0.000
       0.000 -0.000 -0.000 -0.000  1.000
     occupation matrix ns (before diag.):
       0.958 -0.000 -0.000 -0.000  0.000
      -0.000  0.984 -0.000  0.000  0.000
      -0.000 -0.000  0.984  0.000  0.000
      -0.000  0.000  0.000  0.940 -0.000
       0.000  0.000  0.000 -0.000  0.989
     SPIN  2
     eigenvalues:
       0.335  0.869  0.968  0.968  0.979
     eigenvectors (columns):
       0.000  1.000 -0.000 -0.000  0.000
      -0.000  0.000  1.000 -0.000  0.000
      -0.000  0.000  0.000  1.000  0.000
       1.000 -0.000  0.000  0.000 -0.000
       0.000 -0.000 -0.000 -0.000  1.000
     occupation matrix ns (before diag.):
       0.869 -0.000 -0.000 -0.000  0.000
      -0.000  0.968 -0.000  0.000  0.000
      -0.000 -0.000  0.968  0.000  0.000
      -0.000  0.000  0.000  0.335 -0.000
       0.000  0.000  0.000 -0.000  0.979
     ------------------------ ATOM   23 ------------------------
     Tr[ns( 23)] (up, down, total) =   4.85514  4.11995  8.97509
     Atomic magnetic moment for atom  23 =   0.73519
     SPIN  1
     eigenvalues:
       0.940  0.958  0.984  0.984  0.989
     eigenvectors (columns):
      -0.000  1.000 -0.000 -0.000  0.000
      -0.000  0.000  0.314  0.949  0.000
      -0.000  0.000  0.949 -0.314  0.000
       1.000  0.000  0.000  0.000 -0.000
       0.000 -0.000 -0.000 -0.000  1.000
     occupation matrix ns (before diag.):
       0.958 -0.000 -0.000  0.000  0.000
      -0.000  0.984 -0.000  0.000  0.000
      -0.000 -0.000  0.984  0.000  0.000
       0.000  0.000  0.000  0.940 -0.000
       0.000  0.000  0.000 -0.000  0.989
     SPIN  2
     eigenvalues:
       0.335  0.869  0.968  0.968  0.979
     eigenvectors (columns):
       0.000  1.000 -0.000 -0.000  0.000
      -0.000  0.000  0.321  0.947  0.000
      -0.000  0.000  0.947 -0.321  0.000
       1.000 -0.000  0.000  0.000 -0.000
       0.000 -0.000 -0.000 -0.000  1.000
     occupation matrix ns (before diag.):
       0.869 -0.000 -0.000 -0.000  0.000
      -0.000  0.968 -0.000  0.000  0.000
      -0.000 -0.000  0.968  0.000  0.000
      -0.000  0.000  0.000  0.335 -0.000
       0.000  0.000  0.000 -0.000  0.979
     ------------------------ ATOM   24 ------------------------
     Tr[ns( 24)] (up, down, total) =   4.12012  4.85530  8.97542
     Atomic magnetic moment for atom  24 =  -0.73518
     SPIN  1
     eigenvalues:
       0.335  0.869  0.968  0.968  0.979
     eigenvectors (columns):
      -0.000  1.000 -0.000 -0.000  0.000
      -0.000  0.000  0.320  0.947  0.000
      -0.000  0.000  0.947 -0.320  0.000
       1.000  0.000  0.000  0.000 -0.000
       0.000 -0.000 -0.000 -0.000  1.000
     occupation matrix ns (before diag.):
       0.869 -0.000 -0.000 -0.000  0.000
      -0.000  0.968 -0.000  0.000  0.000
      -0.000 -0.000  0.968  0.000  0.000
      -0.000  0.000  0.000  0.335 -0.000
       0.000  0.000  0.000 -0.000  0.979
     SPIN  2
     eigenvalues:
       0.940  0.958  0.984  0.984  0.989
     eigenvectors (columns):
      -0.000  1.000 -0.000 -0.000  0.000
      -0.000  0.000  0.311  0.950  0.000
      -0.000  0.000  0.950 -0.311  0.000
       1.000  0.000  0.000  0.000 -0.000
       0.000 -0.000 -0.000 -0.000  1.000
     occupation matrix ns (before diag.):
       0.958 -0.000 -0.000  0.000  0.000
      -0.000  0.984 -0.000  0.000  0.000
      -0.000 -0.000  0.984  0.000  0.000
       0.000  0.000  0.000  0.940 -0.000
       0.000  0.000  0.000 -0.000  0.989

     Number of occupied Hubbard levels =   71.8016

     negative rho (up, down):  3.820E-01 3.820E-01

     HUBBARD ENERGY =    0.4092  (Ry)

     total cpu time spent up to now is       65.0 secs

     total energy              =   -6557.21776859 Ry
     estimated scf accuracy    <       7.99861992 Ry

     total magnetization       =     0.00 Bohr mag/cell
     absolute magnetization    =     7.31 Bohr mag/cell

     iteration #  2     ecut=    60.00 Ry     beta= 0.10
     Davidson diagonalization with overlap

---- Real-time Memory Report at c_bands before calling an iterative solver
          2022 MiB given to the printing process from OS
             0 MiB allocation reported by mallinfo(arena+hblkhd)
          5768 MiB available memory on the node where the printing process lives
------------------
     ethr =  1.61E-03,  avg # of iterations =  2.0

     =================== HUBBARD OCCUPATIONS ===================
     ------------------------ ATOM   14 ------------------------
     Tr[ns( 14)] (up, down, total) =   4.86363  4.18451  9.04814
     Atomic magnetic moment for atom  14 =   0.67912
     SPIN  1
     eigenvalues:
       0.947  0.962  0.984  0.984  0.988
     eigenvectors (columns):
      -0.000  1.000 -0.000 -0.000  0.000
      -0.000  0.000  0.342  0.940  0.000
      -0.000  0.000  0.940 -0.342  0.000
       1.000  0.000  0.000  0.000 -0.000
       0.000 -0.000 -0.000 -0.000  1.000
     occupation matrix ns (before diag.):
       0.962 -0.000 -0.000  0.000  0.000
      -0.000  0.984 -0.000  0.000  0.000
      -0.000 -0.000  0.984  0.000  0.000
       0.000  0.000  0.000  0.947 -0.000
       0.000  0.000  0.000 -0.000  0.988
     SPIN  2
     eigenvalues:
       0.340  0.921  0.972  0.972  0.979
     eigenvectors (columns):
      -0.000  1.000 -0.000 -0.000  0.000
      -0.000  0.000  0.274  0.962  0.000
      -0.000  0.000  0.962 -0.274  0.000
       1.000 -0.000  0.000  0.000 -0.000
       0.000 -0.000 -0.000 -0.000  1.000
     occupation matrix ns (before diag.):
       0.921 -0.000 -0.000 -0.000  0.000
      -0.000  0.972 -0.000  0.000  0.000
      -0.000 -0.000  0.972  0.000  0.000
      -0.000  0.000  0.000  0.340 -0.000
       0.000  0.000  0.000 -0.000  0.979
     ------------------------ ATOM   15 ------------------------
     Tr[ns( 15)] (up, down, total) =   4.18428  4.86365  9.04793
     Atomic magnetic moment for atom  15 =  -0.67938
     SPIN  1
     eigenvalues:
       0.340  0.921  0.972  0.972  0.979
     eigenvectors (columns):
       0.000  1.000 -0.000 -0.000  0.000
      -0.000  0.000  0.377  0.926  0.000
      -0.000  0.000  0.926 -0.377  0.000
       1.000  0.000  0.000  0.000 -0.000
       0.000 -0.000 -0.000 -0.000  1.000
     occupation matrix ns (before diag.):
       0.921 -0.000 -0.000 -0.000  0.000
      -0.000  0.972 -0.000  0.000  0.000
      -0.000 -0.000  0.972  0.000  0.000
      -0.000  0.000  0.000  0.340 -0.000
       0.000  0.000  0.000 -0.000  0.979
     SPIN  2
     eigenvalues:
       0.947  0.962  0.984  0.984  0.988
     eigenvectors (columns):
      -0.000  1.000 -0.000 -0.000  0.000
      -0.000  0.000  0.306  0.952  0.000
      -0.000  0.000  0.952 -0.306  0.000
       1.000  0.000  0.000  0.000 -0.000
       0.000 -0.000 -0.000 -0.000  1.000
     occupation matrix ns (before diag.):
       0.962 -0.000 -0.000  0.000  0.000
      -0.000  0.984 -0.000  0.000  0.000
      -0.000 -0.000  0.984  0.000  0.000
       0.000  0.000  0.000  0.947 -0.000
       0.000  0.000  0.000 -0.000  0.988
     ------------------------ ATOM   17 ------------------------
     Tr[ns( 17)] (up, down, total) =   4.18448  4.86366  9.04814
     Atomic magnetic moment for atom  17 =  -0.67918
     SPIN  1
     eigenvalues:
       0.340  0.921  0.972  0.972  0.979
     eigenvectors (columns):
       0.000  1.000 -0.000 -0.000  0.000
      -0.000  0.000  1.000 -0.000  0.000
      -0.000  0.000  0.000  1.000  0.000
       1.000 -0.000  0.000  0.000 -0.000
       0.000 -0.000 -0.000 -0.000  1.000
     occupation matrix ns (before diag.):
       0.921 -0.000 -0.000 -0.000  0.000
      -0.000  0.972 -0.000  0.000  0.000
      -0.000 -0.000  0.972  0.000  0.000
      -0.000  0.000  0.000  0.340 -0.000
       0.000  0.000  0.000 -0.000  0.979
     SPIN  2
     eigenvalues:
       0.947  0.962  0.984  0.984  0.988
     eigenvectors (columns):
      -0.000  1.000 -0.000 -0.000  0.000
      -0.000  0.000  1.000 -0.000  0.000
      -0.000  0.000  0.000  1.000  0.000
       1.000  0.000  0.000  0.000 -0.000
       0.000 -0.000 -0.000 -0.000  1.000
     occupation matrix ns (before diag.):
       0.962 -0.000 -0.000  0.000  0.000
      -0.000  0.984 -0.000  0.000  0.000
      -0.000 -0.000  0.984  0.000  0.000
       0.000  0.000  0.000  0.947 -0.000
       0.000  0.000  0.000 -0.000  0.988
     ------------------------ ATOM   18 ------------------------
     Tr[ns( 18)] (up, down, total) =   4.86370  4.18438  9.04808
     Atomic magnetic moment for atom  18 =   0.67931
     SPIN  1
     eigenvalues:
       0.947  0.962  0.984  0.984  0.988
     eigenvectors (columns):
      -0.000  1.000 -0.000 -0.000  0.000
      -0.000  0.000  1.000 -0.000  0.000
      -0.000  0.000  0.000  1.000  0.000
       1.000  0.000  0.000  0.000 -0.000
       0.000 -0.000 -0.000 -0.000  1.000
     occupation matrix ns (before diag.):
       0.962 -0.000 -0.000  0.000  0.000
      -0.000  0.984 -0.000  0.000  0.000
      -0.000 -0.000  0.984  0.000  0.000
       0.000  0.000  0.000  0.947 -0.000
       0.000  0.000  0.000 -0.000  0.988
     SPIN  2
     eigenvalues:
       0.340  0.921  0.972  0.972  0.979
     eigenvectors (columns):
      -0.000  1.000 -0.000 -0.000  0.000
      -0.000  0.000  0.000  1.000  0.000
      -0.000  0.000  1.000 -0.000  0.000
       1.000  0.000  0.000  0.000 -0.000
       0.000 -0.000 -0.000 -0.000  1.000
     occupation matrix ns (before diag.):
       0.921 -0.000 -0.000  0.000  0.000
      -0.000  0.972 -0.000  0.000  0.000
      -0.000 -0.000  0.972  0.000  0.000
       0.000  0.000  0.000  0.340 -0.000
       0.000  0.000  0.000 -0.000  0.979
     ------------------------ ATOM   20 ------------------------
     Tr[ns( 20)] (up, down, total) =   4.18448  4.86366  9.04814
     Atomic magnetic moment for atom  20 =  -0.67918
     SPIN  1
     eigenvalues:
       0.340  0.921  0.972  0.972  0.979
     eigenvectors (columns):
      -0.000  1.000 -0.000 -0.000  0.000
      -0.000  0.000  0.000  1.000  0.000
      -0.000  0.000  1.000 -0.000  0.000
       1.000  0.000  0.000  0.000 -0.000
       0.000 -0.000 -0.000 -0.000  1.000
     occupation matrix ns (before diag.):
       0.921 -0.000 -0.000  0.000  0.000
      -0.000  0.972 -0.000  0.000  0.000
      -0.000 -0.000  0.972  0.000  0.000
       0.000  0.000  0.000  0.340 -0.000
       0.000  0.000  0.000 -0.000  0.979
     SPIN  2
     eigenvalues:
       0.947  0.962  0.984  0.984  0.988
     eigenvectors (columns):
       0.000  1.000 -0.000 -0.000  0.000
      -0.000  0.000  0.000  1.000  0.000
      -0.000  0.000  1.000 -0.000  0.000
       1.000 -0.000  0.000  0.000 -0.000
       0.000 -0.000 -0.000 -0.000  1.000
     occupation matrix ns (before diag.):
       0.962 -0.000 -0.000 -0.000  0.000
      -0.000  0.984 -0.000  0.000  0.000
      -0.000 -0.000  0.984  0.000  0.000
      -0.000  0.000  0.000  0.947 -0.000
       0.000  0.000  0.000 -0.000  0.988
     ------------------------ ATOM   21 ------------------------
     Tr[ns( 21)] (up, down, total) =   4.86370  4.18438  9.04808
     Atomic magnetic moment for atom  21 =   0.67931
     SPIN  1
     eigenvalues:
       0.947  0.962  0.984  0.984  0.988
     eigenvectors (columns):
       0.000  1.000 -0.000 -0.000  0.000
      -0.000  0.000  0.000  1.000  0.000
      -0.000  0.000  1.000 -0.000  0.000
       1.000 -0.000  0.000  0.000 -0.000
       0.000 -0.000 -0.000 -0.000  1.000
     occupation matrix ns (before diag.):
       0.962 -0.000 -0.000 -0.000  0.000
      -0.000  0.984 -0.000  0.000  0.000
      -0.000 -0.000  0.984  0.000  0.000
      -0.000  0.000  0.000  0.947 -0.000
       0.000  0.000  0.000 -0.000  0.988
     SPIN  2
     eigenvalues:
       0.340  0.921  0.972  0.972  0.979
     eigenvectors (columns):
       0.000  1.000 -0.000 -0.000  0.000
      -0.000  0.000  1.000 -0.000  0.000
      -0.000  0.000  0.000  1.000  0.000
       1.000 -0.000  0.000  0.000 -0.000
       0.000 -0.000 -0.000 -0.000  1.000
     occupation matrix ns (before diag.):
       0.921 -0.000 -0.000 -0.000  0.000
      -0.000  0.972 -0.000  0.000  0.000
      -0.000 -0.000  0.972  0.000  0.000
      -0.000  0.000  0.000  0.340 -0.000
       0.000  0.000  0.000 -0.000  0.979
     ------------------------ ATOM   23 ------------------------
     Tr[ns( 23)] (up, down, total) =   4.86367  4.18445  9.04812
     Atomic magnetic moment for atom  23 =   0.67922
     SPIN  1
     eigenvalues:
       0.947  0.962  0.984  0.984  0.988
     eigenvectors (columns):
      -0.000  1.000 -0.000 -0.000  0.000
      -0.000  0.000  0.316  0.949  0.000
      -0.000  0.000  0.949 -0.316  0.000
       1.000  0.000  0.000  0.000 -0.000
       0.000 -0.000 -0.000 -0.000  1.000
     occupation matrix ns (before diag.):
       0.962 -0.000 -0.000  0.000  0.000
      -0.000  0.984 -0.000  0.000  0.000
      -0.000 -0.000  0.984  0.000  0.000
       0.000  0.000  0.000  0.947 -0.000
       0.000  0.000  0.000 -0.000  0.988
     SPIN  2
     eigenvalues:
       0.340  0.921  0.972  0.972  0.979
     eigenvectors (columns):
       0.000  1.000 -0.000 -0.000  0.000
      -0.000  0.000  0.381  0.925  0.000
      -0.000  0.000  0.925 -0.381  0.000
       1.000  0.000  0.000  0.000 -0.000
       0.000 -0.000 -0.000 -0.000  1.000
     occupation matrix ns (before diag.):
       0.921 -0.000 -0.000 -0.000  0.000
      -0.000  0.972 -0.000  0.000  0.000
      -0.000 -0.000  0.972  0.000  0.000
      -0.000  0.000  0.000  0.340 -0.000
       0.000  0.000  0.000 -0.000  0.979
     ------------------------ ATOM   24 ------------------------
     Tr[ns( 24)] (up, down, total) =   4.18424  4.86371  9.04796
     Atomic magnetic moment for atom  24 =  -0.67947
     SPIN  1
     eigenvalues:
       0.340  0.921  0.972  0.972  0.979
     eigenvectors (columns):
       0.000  1.000 -0.000 -0.000  0.000
      -0.000  0.000  0.343  0.939  0.000
      -0.000  0.000  0.939 -0.343  0.000
       1.000 -0.000  0.000  0.000 -0.000
       0.000 -0.000 -0.000 -0.000  1.000
     occupation matrix ns (before diag.):
       0.921 -0.000 -0.000 -0.000  0.000
      -0.000  0.972 -0.000  0.000  0.000
      -0.000 -0.000  0.972  0.000  0.000
      -0.000  0.000  0.000  0.340 -0.000
       0.000  0.000  0.000 -0.000  0.979
     SPIN  2
     eigenvalues:
       0.947  0.962  0.984  0.984  0.988
     eigenvectors (columns):
      -0.000  1.000 -0.000 -0.000  0.000
      -0.000  0.000  0.339  0.941  0.000
      -0.000  0.000  0.941 -0.339  0.000
       1.000  0.000  0.000  0.000 -0.000
       0.000 -0.000 -0.000 -0.000  1.000
     occupation matrix ns (before diag.):
       0.962 -0.000 -0.000  0.000  0.000
      -0.000  0.984 -0.000  0.000  0.000
      -0.000 -0.000  0.984  0.000  0.000
       0.000  0.000  0.000  0.947 -0.000
       0.000  0.000  0.000 -0.000  0.988

     Number of occupied Hubbard levels =   72.3846

     negative rho (up, down):  3.700E-01 3.700E-01

     HUBBARD ENERGY =    0.3984  (Ry)

     total cpu time spent up to now is      105.3 secs

     total energy              =   -6555.90068220 Ry
     estimated scf accuracy    <       4.69569225 Ry

     total magnetization       =     0.00 Bohr mag/cell
     absolute magnetization    =     6.88 Bohr mag/cell

     iteration #  3     ecut=    60.00 Ry     beta= 0.10
     Davidson diagonalization with overlap

---- Real-time Memory Report at c_bands before calling an iterative solver
          2030 MiB given to the printing process from OS
             0 MiB allocation reported by mallinfo(arena+hblkhd)
          5735 MiB available memory on the node where the printing process lives
------------------
     ethr =  9.47E-04,  avg # of iterations =  5.5

     =================== HUBBARD OCCUPATIONS ===================
     ------------------------ ATOM   14 ------------------------
     Tr[ns( 14)] (up, down, total) =   4.89479  4.71250  9.60729
     Atomic magnetic moment for atom  14 =   0.18229
     SPIN  1
     eigenvalues:
       0.953  0.973  0.989  0.989  0.991
     eigenvectors (columns):
      -0.000  1.000 -0.000 -0.000  0.000
      -0.000  0.000  0.324  0.946  0.000
      -0.000  0.000  0.946 -0.324  0.000
       1.000  0.000  0.000  0.000 -0.000
       0.000 -0.000 -0.000 -0.000  1.000
     occupation matrix ns (before diag.):
       0.973 -0.000 -0.000  0.000  0.000
      -0.000  0.989 -0.000  0.000  0.000
      -0.000 -0.000  0.989  0.000  0.000
       0.000  0.000  0.000  0.953 -0.000
       0.000  0.000  0.000 -0.000  0.991
     SPIN  2
     eigenvalues:
       0.809  0.955  0.982  0.982  0.986
     eigenvectors (columns):
      -0.000  1.000 -0.000 -0.000  0.000
      -0.000  0.000  0.333  0.943  0.000
      -0.000  0.000  0.943 -0.333  0.000
       1.000  0.000  0.000  0.000 -0.000
       0.000 -0.000 -0.000 -0.000  1.000
     occupation matrix ns (before diag.):
       0.955 -0.000 -0.000  0.000  0.000
      -0.000  0.982 -0.000  0.000  0.000
      -0.000 -0.000  0.982  0.000  0.000
       0.000  0.000  0.000  0.809 -0.000
       0.000  0.000  0.000 -0.000  0.986
     ------------------------ ATOM   15 ------------------------
     Tr[ns( 15)] (up, down, total) =   4.71253  4.89483  9.60736
     Atomic magnetic moment for atom  15 =  -0.18229
     SPIN  1
     eigenvalues:
       0.809  0.955  0.982  0.982  0.986
     eigenvectors (columns):
      -0.000  1.000 -0.000 -0.000  0.000
      -0.000  0.000  0.364  0.931  0.000
      -0.000  0.000  0.931 -0.364  0.000
       1.000  0.000  0.000  0.000 -0.000
       0.000 -0.000 -0.000 -0.000  1.000
     occupation matrix ns (before diag.):
       0.955 -0.000 -0.000  0.000  0.000
      -0.000  0.982 -0.000  0.000  0.000
      -0.000 -0.000  0.982  0.000  0.000
       0.000  0.000  0.000  0.809 -0.000
       0.000  0.000  0.000 -0.000  0.986
     SPIN  2
     eigenvalues:
       0.953  0.973  0.989  0.989  0.991
     eigenvectors (columns):
      -0.000  1.000 -0.000 -0.000  0.000
      -0.000  0.000  0.349  0.937  0.000
      -0.000  0.000  0.937 -0.349  0.000
       1.000  0.000  0.000  0.000 -0.000
       0.000 -0.000 -0.000 -0.000  1.000
     occupation matrix ns (before diag.):
       0.973 -0.000 -0.000  0.000  0.000
      -0.000  0.989 -0.000  0.000  0.000
      -0.000 -0.000  0.989  0.000  0.000
       0.000  0.000  0.000  0.953 -0.000
       0.000  0.000  0.000 -0.000  0.991
     ------------------------ ATOM   17 ------------------------
     Tr[ns( 17)] (up, down, total) =   4.71246  4.89477  9.60723
     Atomic magnetic moment for atom  17 =  -0.18232
     SPIN  1
     eigenvalues:
       0.809  0.955  0.982  0.982  0.986
     eigenvectors (columns):
       0.000  1.000 -0.000 -0.000  0.000
      -0.000  0.000  0.000  1.000  0.000
      -0.000  0.000  1.000 -0.000  0.000
       1.000 -0.000  0.000  0.000 -0.000
       0.000 -0.000 -0.000 -0.000  1.000
     occupation matrix ns (before diag.):
       0.955 -0.000 -0.000 -0.000  0.000
      -0.000  0.982 -0.000  0.000  0.000
      -0.000 -0.000  0.982  0.000  0.000
      -0.000  0.000  0.000  0.809 -0.000
       0.000  0.000  0.000 -0.000  0.986
     SPIN  2
     eigenvalues:
       0.953  0.973  0.989  0.989  0.991
     eigenvectors (columns):
      -0.000  1.000 -0.000 -0.000  0.000
      -0.000  0.000  1.000 -0.000  0.000
      -0.000  0.000  0.000  1.000  0.000
       1.000  0.000  0.000  0.000 -0.000
       0.000 -0.000 -0.000 -0.000  1.000
     occupation matrix ns (before diag.):
       0.973 -0.000 -0.000  0.000  0.000
      -0.000  0.989 -0.000  0.000  0.000
      -0.000 -0.000  0.989  0.000  0.000
       0.000  0.000  0.000  0.953 -0.000
       0.000  0.000  0.000 -0.000  0.991
     ------------------------ ATOM   18 ------------------------
     Tr[ns( 18)] (up, down, total) =   4.89481  4.71242  9.60723
     Atomic magnetic moment for atom  18 =   0.18239
     SPIN  1
     eigenvalues:
       0.953  0.973  0.989  0.989  0.991
     eigenvectors (columns):
      -0.000  1.000 -0.000 -0.000  0.000
      -0.000  0.000  1.000 -0.000  0.000
      -0.000  0.000  0.000  1.000  0.000
       1.000  0.000  0.000  0.000 -0.000
       0.000 -0.000 -0.000 -0.000  1.000
     occupation matrix ns (before diag.):
       0.973 -0.000 -0.000  0.000  0.000
      -0.000  0.989 -0.000  0.000  0.000
      -0.000 -0.000  0.989  0.000  0.000
       0.000  0.000  0.000  0.953 -0.000
       0.000  0.000  0.000 -0.000  0.991
     SPIN  2
     eigenvalues:
       0.809  0.955  0.982  0.982  0.986
     eigenvectors (columns):
       0.000  1.000 -0.000 -0.000  0.000
      -0.000  0.000  0.000  1.000  0.000
      -0.000  0.000  1.000 -0.000  0.000
       1.000 -0.000  0.000  0.000 -0.000
       0.000 -0.000 -0.000 -0.000  1.000
     occupation matrix ns (before diag.):
       0.955 -0.000 -0.000 -0.000  0.000
      -0.000  0.982 -0.000  0.000  0.000
      -0.000 -0.000  0.982  0.000  0.000
      -0.000  0.000  0.000  0.809 -0.000
       0.000  0.000  0.000 -0.000  0.986
     ------------------------ ATOM   20 ------------------------
     Tr[ns( 20)] (up, down, total) =   4.71246  4.89477  9.60723
     Atomic magnetic moment for atom  20 =  -0.18232
     SPIN  1
     eigenvalues:
       0.809  0.955  0.982  0.982  0.986
     eigenvectors (columns):
      -0.000  1.000 -0.000 -0.000  0.000
      -0.000  0.000  1.000 -0.000  0.000
      -0.000  0.000  0.000  1.000  0.000
       1.000  0.000  0.000  0.000 -0.000
       0.000 -0.000 -0.000 -0.000  1.000
     occupation matrix ns (before diag.):
       0.955 -0.000 -0.000  0.000  0.000
      -0.000  0.982 -0.000  0.000  0.000
      -0.000 -0.000  0.982  0.000  0.000
       0.000  0.000  0.000  0.809 -0.000
       0.000  0.000  0.000 -0.000  0.986
     SPIN  2
     eigenvalues:
       0.953  0.973  0.989  0.989  0.991
     eigenvectors (columns):
       0.000  1.000 -0.000 -0.000  0.000
      -0.000  0.000  0.000  1.000  0.000
      -0.000  0.000  1.000 -0.000  0.000
       1.000 -0.000  0.000  0.000 -0.000
       0.000 -0.000 -0.000 -0.000  1.000
     occupation matrix ns (before diag.):
       0.973 -0.000 -0.000 -0.000  0.000
      -0.000  0.989 -0.000  0.000  0.000
      -0.000 -0.000  0.989  0.000  0.000
      -0.000  0.000  0.000  0.953 -0.000
       0.000  0.000  0.000 -0.000  0.991
     ------------------------ ATOM   21 ------------------------
     Tr[ns( 21)] (up, down, total) =   4.89481  4.71242  9.60723
     Atomic magnetic moment for atom  21 =   0.18239
     SPIN  1
     eigenvalues:
       0.953  0.973  0.989  0.989  0.991
     eigenvectors (columns):
       0.000  1.000 -0.000 -0.000  0.000
      -0.000  0.000  0.000  1.000  0.000
      -0.000  0.000  1.000 -0.000  0.000
       1.000 -0.000  0.000  0.000 -0.000
       0.000 -0.000 -0.000 -0.000  1.000
     occupation matrix ns (before diag.):
       0.973 -0.000 -0.000 -0.000  0.000
      -0.000  0.989 -0.000  0.000  0.000
      -0.000 -0.000  0.989  0.000  0.000
      -0.000  0.000  0.000  0.953 -0.000
       0.000  0.000  0.000 -0.000  0.991
     SPIN  2
     eigenvalues:
       0.809  0.955  0.982  0.982  0.986
     eigenvectors (columns):
      -0.000  1.000 -0.000 -0.000  0.000
      -0.000  0.000  1.000 -0.000  0.000
      -0.000  0.000  0.000  1.000  0.000
       1.000  0.000  0.000  0.000 -0.000
       0.000 -0.000 -0.000 -0.000  1.000
     occupation matrix ns (before diag.):
       0.955 -0.000 -0.000  0.000  0.000
      -0.000  0.982 -0.000  0.000  0.000
      -0.000 -0.000  0.982  0.000  0.000
       0.000  0.000  0.000  0.809 -0.000
       0.000  0.000  0.000 -0.000  0.986
     ------------------------ ATOM   23 ------------------------
     Tr[ns( 23)] (up, down, total) =   4.89478  4.71246  9.60724
     Atomic magnetic moment for atom  23 =   0.18232
     SPIN  1
     eigenvalues:
       0.953  0.973  0.989  0.989  0.991
     eigenvectors (columns):
      -0.000  1.000 -0.000 -0.000  0.000
      -0.000  0.000  0.340  0.940  0.000
      -0.000  0.000  0.940 -0.340  0.000
       1.000  0.000  0.000  0.000 -0.000
       0.000 -0.000 -0.000 -0.000  1.000
     occupation matrix ns (before diag.):
       0.973 -0.000 -0.000  0.000  0.000
      -0.000  0.989 -0.000  0.000  0.000
      -0.000 -0.000  0.989  0.000  0.000
       0.000  0.000  0.000  0.953 -0.000
       0.000  0.000  0.000 -0.000  0.991
     SPIN  2
     eigenvalues:
       0.809  0.955  0.982  0.982  0.986
     eigenvectors (columns):
      -0.000  1.000 -0.000 -0.000  0.000
      -0.000  0.000  0.311  0.950  0.000
      -0.000  0.000  0.950 -0.311  0.000
       1.000  0.000  0.000  0.000 -0.000
       0.000 -0.000 -0.000 -0.000  1.000
     occupation matrix ns (before diag.):
       0.955 -0.000 -0.000  0.000  0.000
      -0.000  0.982 -0.000  0.000  0.000
      -0.000 -0.000  0.982  0.000  0.000
       0.000  0.000  0.000  0.809 -0.000
       0.000  0.000  0.000 -0.000  0.986
     ------------------------ ATOM   24 ------------------------
     Tr[ns( 24)] (up, down, total) =   4.71252  4.89484  9.60736
     Atomic magnetic moment for atom  24 =  -0.18231
     SPIN  1
     eigenvalues:
       0.809  0.955  0.982  0.982  0.986
     eigenvectors (columns):
       0.000  1.000 -0.000 -0.000  0.000
      -0.000  0.000  0.331  0.944  0.000
      -0.000  0.000  0.944 -0.331  0.000
       1.000 -0.000  0.000  0.000 -0.000
       0.000 -0.000 -0.000 -0.000  1.000
     occupation matrix ns (before diag.):
       0.955 -0.000 -0.000  0.000  0.000
      -0.000  0.982 -0.000  0.000  0.000
      -0.000 -0.000  0.982  0.000  0.000
       0.000  0.000  0.000  0.809 -0.000
       0.000  0.000  0.000 -0.000  0.986
     SPIN  2
     eigenvalues:
       0.953  0.973  0.989  0.989  0.991
     eigenvectors (columns):
      -0.000  1.000 -0.000 -0.000  0.000
      -0.000  0.000  0.339  0.941  0.000
      -0.000  0.000  0.941 -0.339  0.000
       1.000  0.000  0.000  0.000 -0.000
       0.000 -0.000 -0.000 -0.000  1.000
     occupation matrix ns (before diag.):
       0.973 -0.000 -0.000  0.000  0.000
      -0.000  0.989 -0.000  0.000  0.000
      -0.000 -0.000  0.989  0.000  0.000
       0.000  0.000  0.000  0.953 -0.000
       0.000  0.000  0.000 -0.000  0.991

     Number of occupied Hubbard levels =   76.8582

     negative rho (up, down):  3.707E-01 3.707E-01

     HUBBARD ENERGY =    0.4004  (Ry)

     total cpu time spent up to now is      150.8 secs

     total energy              =   -6556.50131468 Ry
     estimated scf accuracy    <       5.28435685 Ry

     total magnetization       =     0.00 Bohr mag/cell
     absolute magnetization    =     2.56 Bohr mag/cell

     iteration #  4     ecut=    60.00 Ry     beta= 0.10
     Davidson diagonalization with overlap

---- Real-time Memory Report at c_bands before calling an iterative solver
          2039 MiB given to the printing process from OS
             0 MiB allocation reported by mallinfo(arena+hblkhd)
          5703 MiB available memory on the node where the printing process lives
------------------
     ethr =  9.47E-04,  avg # of iterations =  1.0

     =================== HUBBARD OCCUPATIONS ===================
     ------------------------ ATOM   14 ------------------------
     Tr[ns( 14)] (up, down, total) =   4.88349  4.35050  9.23399
     Atomic magnetic moment for atom  14 =   0.53300
     SPIN  1
     eigenvalues:
       0.947  0.970  0.988  0.988  0.991
     eigenvectors (columns):
      -0.000  1.000 -0.000 -0.000  0.000
      -0.000  0.000  0.323  0.947  0.000
      -0.000  0.000  0.947 -0.323  0.000
       1.000  0.000  0.000  0.000 -0.000
       0.000 -0.000 -0.000 -0.000  1.000
     occupation matrix ns (before diag.):
       0.970 -0.000 -0.000  0.000  0.000
      -0.000  0.988 -0.000  0.000  0.000
      -0.000 -0.000  0.988  0.000  0.000
       0.000  0.000  0.000  0.947 -0.000
       0.000  0.000  0.000 -0.000  0.991
     SPIN  2
     eigenvalues:
       0.460  0.943  0.981  0.981  0.985
     eigenvectors (columns):
      -0.000  1.000 -0.000 -0.000  0.000
      -0.000  0.000  0.326  0.945  0.000
      -0.000  0.000  0.945 -0.326  0.000
       1.000  0.000  0.000  0.000 -0.000
       0.000 -0.000 -0.000 -0.000  1.000
     occupation matrix ns (before diag.):
       0.943 -0.000 -0.000  0.000  0.000
      -0.000  0.981 -0.000  0.000  0.000
      -0.000 -0.000  0.981  0.000  0.000
       0.000  0.000  0.000  0.460 -0.000
       0.000  0.000  0.000 -0.000  0.985
     ------------------------ ATOM   15 ------------------------
     Tr[ns( 15)] (up, down, total) =   4.35045  4.88351  9.23395
     Atomic magnetic moment for atom  15 =  -0.53306
     SPIN  1
     eigenvalues:
       0.460  0.943  0.981  0.981  0.985
     eigenvectors (columns):
      -0.000  1.000 -0.000 -0.000  0.000
      -0.000  0.000  0.405  0.914  0.000
      -0.000  0.000  0.914 -0.405  0.000
       1.000  0.000  0.000  0.000 -0.000
       0.000 -0.000 -0.000 -0.000  1.000
     occupation matrix ns (before diag.):
       0.943 -0.000 -0.000  0.000  0.000
      -0.000  0.981 -0.000  0.000  0.000
      -0.000 -0.000  0.981  0.000  0.000
       0.000  0.000  0.000  0.460 -0.000
       0.000  0.000  0.000 -0.000  0.985
     SPIN  2
     eigenvalues:
       0.947  0.970  0.988  0.988  0.991
     eigenvectors (columns):
      -0.000  1.000 -0.000 -0.000  0.000
      -0.000  0.000  0.350  0.937  0.000
      -0.000  0.000  0.937 -0.350  0.000
       1.000  0.000  0.000  0.000 -0.000
       0.000 -0.000 -0.000 -0.000  1.000
     occupation matrix ns (before diag.):
       0.970 -0.000 -0.000  0.000  0.000
      -0.000  0.988 -0.000  0.000  0.000
      -0.000 -0.000  0.988  0.000  0.000
       0.000  0.000  0.000  0.947 -0.000
       0.000  0.000  0.000 -0.000  0.991
     ------------------------ ATOM   17 ------------------------
     Tr[ns( 17)] (up, down, total) =   4.35050  4.88349  9.23399
     Atomic magnetic moment for atom  17 =  -0.53299
     SPIN  1
     eigenvalues:
       0.460  0.943  0.981  0.981  0.985
     eigenvectors (columns):
       0.000  1.000 -0.000 -0.000  0.000
      -0.000  0.000  0.000  1.000  0.000
      -0.000  0.000  1.000 -0.000  0.000
       1.000 -0.000  0.000  0.000 -0.000
       0.000 -0.000 -0.000 -0.000  1.000
     occupation matrix ns (before diag.):
       0.943 -0.000 -0.000 -0.000  0.000
      -0.000  0.981 -0.000  0.000  0.000
      -0.000 -0.000  0.981  0.000  0.000
      -0.000  0.000  0.000  0.460 -0.000
       0.000  0.000  0.000 -0.000  0.985
     SPIN  2
     eigenvalues:
       0.947  0.970  0.988  0.988  0.991
     eigenvectors (columns):
       0.000  1.000 -0.000 -0.000  0.000
      -0.000  0.000  1.000 -0.000  0.000
      -0.000  0.000  0.000  1.000  0.000
       1.000 -0.000  0.000  0.000 -0.000
       0.000 -0.000 -0.000 -0.000  1.000
     occupation matrix ns (before diag.):
       0.970 -0.000 -0.000 -0.000  0.000
      -0.000  0.988 -0.000  0.000  0.000
      -0.000 -0.000  0.988  0.000  0.000
      -0.000  0.000  0.000  0.947 -0.000
       0.000  0.000  0.000 -0.000  0.991
     ------------------------ ATOM   18 ------------------------
     Tr[ns( 18)] (up, down, total) =   4.88353  4.35054  9.23406
     Atomic magnetic moment for atom  18 =   0.53299
     SPIN  1
     eigenvalues:
       0.947  0.970  0.988  0.988  0.991
     eigenvectors (columns):
       0.000  1.000 -0.000 -0.000  0.000
      -0.000  0.000  1.000 -0.000  0.000
      -0.000  0.000  0.000  1.000  0.000
       1.000 -0.000  0.000  0.000 -0.000
       0.000 -0.000 -0.000 -0.000  1.000
     occupation matrix ns (before diag.):
       0.970 -0.000 -0.000 -0.000  0.000
      -0.000  0.988 -0.000  0.000  0.000
      -0.000 -0.000  0.988  0.000  0.000
      -0.000  0.000  0.000  0.947 -0.000
       0.000  0.000  0.000 -0.000  0.991
     SPIN  2
     eigenvalues:
       0.460  0.943  0.981  0.981  0.985
     eigenvectors (columns):
      -0.000  1.000 -0.000 -0.000  0.000
      -0.000  0.000  1.000 -0.000  0.000
      -0.000  0.000  0.000  1.000  0.000
       1.000  0.000  0.000  0.000 -0.000
       0.000 -0.000 -0.000 -0.000  1.000
     occupation matrix ns (before diag.):
       0.943 -0.000 -0.000  0.000  0.000
      -0.000  0.981 -0.000  0.000  0.000
      -0.000 -0.000  0.981  0.000  0.000
       0.000  0.000  0.000  0.460 -0.000
       0.000  0.000  0.000 -0.000  0.985
     ------------------------ ATOM   20 ------------------------
     Tr[ns( 20)] (up, down, total) =   4.35050  4.88349  9.23399
     Atomic magnetic moment for atom  20 =  -0.53299
     SPIN  1
     eigenvalues:
       0.460  0.943  0.981  0.981  0.985
     eigenvectors (columns):
      -0.000  1.000 -0.000 -0.000  0.000
      -0.000  0.000  1.000 -0.000  0.000
      -0.000  0.000  0.000  1.000  0.000
       1.000  0.000  0.000  0.000 -0.000
       0.000 -0.000 -0.000 -0.000  1.000
     occupation matrix ns (before diag.):
       0.943 -0.000 -0.000  0.000  0.000
      -0.000  0.981 -0.000  0.000  0.000
      -0.000 -0.000  0.981  0.000  0.000
       0.000  0.000  0.000  0.460 -0.000
       0.000  0.000  0.000 -0.000  0.985
     SPIN  2
     eigenvalues:
       0.947  0.970  0.988  0.988  0.991
     eigenvectors (columns):
      -0.000  1.000 -0.000 -0.000  0.000
      -0.000  0.000  0.000  1.000  0.000
      -0.000  0.000  1.000 -0.000  0.000
       1.000  0.000  0.000  0.000 -0.000
       0.000 -0.000 -0.000 -0.000  1.000
     occupation matrix ns (before diag.):
       0.970 -0.000 -0.000  0.000  0.000
      -0.000  0.988 -0.000  0.000  0.000
      -0.000 -0.000  0.988  0.000  0.000
       0.000  0.000  0.000  0.947 -0.000
       0.000  0.000  0.000 -0.000  0.991
     ------------------------ ATOM   21 ------------------------
     Tr[ns( 21)] (up, down, total) =   4.88353  4.35054  9.23406
     Atomic magnetic moment for atom  21 =   0.53299
     SPIN  1
     eigenvalues:
       0.947  0.970  0.988  0.988  0.991
     eigenvectors (columns):
      -0.000  1.000 -0.000 -0.000  0.000
      -0.000  0.000  0.000  1.000  0.000
      -0.000  0.000  1.000 -0.000  0.000
       1.000  0.000  0.000  0.000 -0.000
       0.000 -0.000 -0.000 -0.000  1.000
     occupation matrix ns (before diag.):
       0.970 -0.000 -0.000  0.000  0.000
      -0.000  0.988 -0.000  0.000  0.000
      -0.000 -0.000  0.988  0.000  0.000
       0.000  0.000  0.000  0.947 -0.000
       0.000  0.000  0.000 -0.000  0.991
     SPIN  2
     eigenvalues:
       0.460  0.943  0.981  0.981  0.985
     eigenvectors (columns):
       0.000  1.000 -0.000 -0.000  0.000
      -0.000  0.000  0.000  1.000  0.000
      -0.000  0.000  1.000 -0.000  0.000
       1.000 -0.000  0.000  0.000 -0.000
       0.000 -0.000 -0.000 -0.000  1.000
     occupation matrix ns (before diag.):
       0.943 -0.000 -0.000 -0.000  0.000
      -0.000  0.981 -0.000  0.000  0.000
      -0.000 -0.000  0.981  0.000  0.000
      -0.000  0.000  0.000  0.460 -0.000
       0.000  0.000  0.000 -0.000  0.985
     ------------------------ ATOM   23 ------------------------
     Tr[ns( 23)] (up, down, total) =   4.88349  4.35049  9.23398
     Atomic magnetic moment for atom  23 =   0.53301
     SPIN  1
     eigenvalues:
       0.947  0.970  0.988  0.988  0.991
     eigenvectors (columns):
      -0.000  1.000 -0.000 -0.000  0.000
      -0.000  0.000  0.337  0.941  0.000
      -0.000  0.000  0.941 -0.337  0.000
       1.000  0.000  0.000  0.000 -0.000
       0.000 -0.000 -0.000 -0.000  1.000
     occupation matrix ns (before diag.):
       0.970 -0.000 -0.000  0.000  0.000
      -0.000  0.988 -0.000  0.000  0.000
      -0.000 -0.000  0.988  0.000  0.000
       0.000  0.000  0.000  0.947 -0.000
       0.000  0.000  0.000 -0.000  0.991
     SPIN  2
     eigenvalues:
       0.460  0.943  0.981  0.981  0.985
     eigenvectors (columns):
       0.000  1.000 -0.000 -0.000  0.000
      -0.000  0.000  0.323  0.946  0.000
      -0.000  0.000  0.946 -0.323  0.000
       1.000 -0.000  0.000  0.000 -0.000
       0.000 -0.000 -0.000 -0.000  1.000
     occupation matrix ns (before diag.):
       0.943 -0.000 -0.000  0.000  0.000
      -0.000  0.981 -0.000  0.000  0.000
      -0.000 -0.000  0.981  0.000  0.000
       0.000  0.000  0.000  0.460 -0.000
       0.000  0.000  0.000 -0.000  0.985
     ------------------------ ATOM   24 ------------------------
     Tr[ns( 24)] (up, down, total) =   4.35050  4.88352  9.23403
     Atomic magnetic moment for atom  24 =  -0.53302
     SPIN  1
     eigenvalues:
       0.460  0.943  0.981  0.981  0.985
     eigenvectors (columns):
       0.000  1.000 -0.000 -0.000  0.000
      -0.000  0.000  0.366  0.931  0.000
      -0.000  0.000  0.931 -0.366  0.000
       1.000 -0.000  0.000  0.000 -0.000
       0.000 -0.000 -0.000 -0.000  1.000
     occupation matrix ns (before diag.):
       0.943 -0.000 -0.000  0.000  0.000
      -0.000  0.981 -0.000  0.000  0.000
      -0.000 -0.000  0.981  0.000  0.000
       0.000  0.000  0.000  0.460 -0.000
       0.000  0.000  0.000 -0.000  0.985
     SPIN  2
     eigenvalues:
       0.947  0.970  0.988  0.988  0.991
     eigenvectors (columns):
      -0.000  1.000 -0.000 -0.000  0.000
      -0.000  0.000  0.309  0.951  0.000
      -0.000  0.000  0.951 -0.309  0.000
       1.000  0.000  0.000  0.000 -0.000
       0.000 -0.000 -0.000 -0.000  1.000
     occupation matrix ns (before diag.):
       0.970 -0.000 -0.000  0.000  0.000
      -0.000  0.988 -0.000  0.000  0.000
      -0.000 -0.000  0.988  0.000  0.000
       0.000  0.000  0.000  0.947 -0.000
       0.000  0.000  0.000 -0.000  0.991

     Number of occupied Hubbard levels =   73.8721

     negative rho (up, down):  3.663E-01 3.663E-01

     HUBBARD ENERGY =    0.3944  (Ry)

     total cpu time spent up to now is      188.3 secs

     total energy              =   -6556.64992433 Ry
     estimated scf accuracy    <       0.88159780 Ry

     total magnetization       =     0.00 Bohr mag/cell
     absolute magnetization    =     5.86 Bohr mag/cell

     iteration #  5     ecut=    60.00 Ry     beta= 0.10
     Davidson diagonalization with overlap

---- Real-time Memory Report at c_bands before calling an iterative solver
          2044 MiB given to the printing process from OS
             0 MiB allocation reported by mallinfo(arena+hblkhd)
          5685 MiB available memory on the node where the printing process lives
------------------
     ethr =  1.78E-04,  avg # of iterations =  8.5

     =================== HUBBARD OCCUPATIONS ===================
     ------------------------ ATOM   14 ------------------------
     Tr[ns( 14)] (up, down, total) =   4.88279  4.44423  9.32702
     Atomic magnetic moment for atom  14 =   0.43857
     SPIN  1
     eigenvalues:
       0.946  0.969  0.988  0.988  0.991
     eigenvectors (columns):
      -0.000  1.000 -0.000 -0.000  0.000
      -0.000  0.000  0.346  0.938  0.000
      -0.000  0.000  0.938 -0.346  0.000
       1.000  0.000  0.000  0.000 -0.000
       0.000 -0.000 -0.000 -0.000  1.000
     occupation matrix ns (before diag.):
       0.969 -0.000 -0.000  0.000  0.000
      -0.000  0.988 -0.000  0.000  0.000
      -0.000 -0.000  0.988  0.000  0.000
       0.000  0.000  0.000  0.946 -0.000
       0.000  0.000  0.000 -0.000  0.991
     SPIN  2
     eigenvalues:
       0.550  0.946  0.981  0.981  0.986
     eigenvectors (columns):
      -0.000  1.000 -0.000 -0.000  0.000
      -0.000  0.000  0.308  0.951  0.000
      -0.000  0.000  0.951 -0.308  0.000
       1.000  0.000  0.000  0.000 -0.000
       0.000 -0.000 -0.000 -0.000  1.000
     occupation matrix ns (before diag.):
       0.946 -0.000 -0.000  0.000  0.000
      -0.000  0.981 -0.000  0.000  0.000
      -0.000 -0.000  0.981  0.000  0.000
       0.000  0.000  0.000  0.550 -0.000
       0.000  0.000  0.000 -0.000  0.986
     ------------------------ ATOM   15 ------------------------
     Tr[ns( 15)] (up, down, total) =   4.44494  4.88280  9.32774
     Atomic magnetic moment for atom  15 =  -0.43786
     SPIN  1
     eigenvalues:
       0.551  0.946  0.981  0.981  0.986
     eigenvectors (columns):
      -0.000  1.000 -0.000 -0.000  0.000
[...]
     8.2434   8.3611   8.3611   8.6395   8.6395   8.6482   8.6524   8.7575
     8.7575   8.8588   8.8589   8.8946   9.0210   9.0214   9.0214   9.1191
     9.1271   9.1271   9.2600   9.2600   9.2917   9.3231   9.3328   9.3328
     9.3617   9.3711   9.3712   9.3768   9.4350   9.4351   9.4383   9.4877
     9.4877   9.5164   9.5229   9.5231   9.5661   9.5661   9.6097   9.6921
     9.6921   9.7218   9.7449   9.8027   9.9338   9.9338   9.9889   9.9891
    10.0334  10.0334  10.0990  10.1879  10.1881  10.2431  10.2431  10.6202
    10.6202  10.6861  10.7365  10.7365  11.1512  11.1512  11.2366  11.2366
    11.3750  11.3750  13.1016  13.1016  13.5054  13.5765  13.9063  14.1389
    14.1389  14.2246  14.3561  14.4172  14.5412  15.5274  15.5627  15.5627
    15.7323  15.7324  15.8019  16.1122  16.1372  16.2055  16.2055  16.4004
    16.5031  16.8143  16.8143  16.9202  16.9202  16.9294  16.9294  16.9312
    16.9312  16.9836  16.9836  17.0605  17.1643  17.1643  17.5788  17.5788
    17.5925  17.5925  17.5958  17.8429  17.8429  18.1831  18.2957  18.2957
    18.5042  18.5042

     occupation numbers 
     1.0000   1.0000   1.0000   1.0000   1.0000   1.0000   1.0000   1.0000
     1.0000   1.0000   1.0000   1.0000   1.0000   1.0000   1.0000   1.0000
     1.0000   1.0000   1.0000   1.0000   1.0000   1.0000   1.0000   1.0000
     1.0000   1.0000   1.0000   1.0000   1.0000   1.0000   1.0000   1.0000
     1.0000   1.0000   1.0000   1.0000   1.0000   1.0000   1.0000   1.0000
     1.0000   1.0000   1.0000   1.0000   1.0000   1.0000   1.0000   1.0000
     1.0000   1.0000   1.0000   1.0000   1.0000   1.0000   1.0000   1.0000
     1.0000   1.0000   1.0000   1.0000   1.0000   1.0000   1.0000   1.0000
     1.0000   1.0000   1.0000   1.0000   1.0000   1.0000   1.0000   1.0000
     1.0000   1.0000   1.0000   1.0000   1.0000   1.0000   1.0000   1.0000
     1.0000   1.0000   1.0000   1.0000   1.0000   1.0000   1.0000   1.0000
     1.0000   1.0000   1.0000   1.0000   1.0000   1.0000   1.0000   1.0000
     1.0000   1.0000   1.0000   1.0000   1.0000   1.0000   1.0000   1.0000
     1.0000   1.0000   1.0000   1.0000   1.0000   1.0000   1.0000   1.0000
     1.0000   1.0000   1.0000   1.0000   1.0000   1.0000   1.0000   1.0000
     1.0000   1.0000   1.0000   1.0000   1.0000   1.0000   1.0000   1.0000
     1.0000   1.0000   1.0000   1.0000   1.0000   1.0000   1.0000   1.0000
     1.0000   1.0000   1.0000   1.0000   1.0000   1.0000   1.0000   1.0000
     1.0000   1.0000   1.0000   1.0000   1.0000   1.0000   1.0000   1.0000
     1.0000   1.0000   1.0000   1.0000   1.0000   1.0000   1.0000   1.0000
     1.0000   1.0000   1.0000   1.0000   1.0000   1.0000   1.0000   1.0000
     1.0000   1.0000   1.0000   1.0000   1.0000   1.0000   1.0000   1.0000
     1.0000   1.0000   1.0000   1.0000   1.0000   1.0000   1.0000   1.0000
     1.0000   1.0000   1.0000   1.0000   1.0000   1.0000   1.0000   1.0000
     1.0000   1.0000   1.0000   1.0000   1.0000   1.0000   1.0000   1.0000
     1.0000   1.0000   1.0000   1.0000   1.0000   1.0000   1.0000   1.0000
     1.0000   1.0000   1.0000   1.0000   1.0000   1.0000   1.0000   1.0000
     1.0000   1.0000   1.0000   1.0000   1.0000   1.0000   1.0000   1.0000
     1.0000   1.0000   1.0000   1.0000   1.0000   1.0000   1.0000   1.0000
     1.0000   1.0000   1.0000   1.0000   1.0000   1.0000   1.0000   1.0000
     1.0000   1.0000   1.0000   1.0000   1.0344   1.0344   0.8810   0.8810
     0.1315   0.1314  -0.0000  -0.0000  -0.0000  -0.0000  -0.0000  -0.0000
    -0.0000  -0.0000  -0.0000  -0.0000  -0.0000  -0.0000  -0.0000  -0.0000
    -0.0000  -0.0000  -0.0000  -0.0000  -0.0000  -0.0000  -0.0000  -0.0000
    -0.0000  -0.0000  -0.0000  -0.0000  -0.0000  -0.0000  -0.0000  -0.0000
    -0.0000  -0.0000  -0.0000  -0.0000  -0.0000  -0.0000  -0.0000  -0.0000
    -0.0000  -0.0000  -0.0000  -0.0000  -0.0000  -0.0000  -0.0000  -0.0000
    -0.0000  -0.0000

 ------ SPIN DOWN ----------


          k = 0.0000 0.0000 0.0000 ( 35361 PWs)   bands (ev):

  -101.2063-101.2063-101.2060-101.2060-100.5904-100.5904-100.5903-100.5903
  -100.4281-100.4281-100.4276-100.4276 -58.8326 -58.8326 -58.8326 -58.8326
   -58.8322 -58.8322 -58.8322 -58.8322 -58.1353 -58.1353 -58.1351 -58.1351
   -58.0974 -58.0974 -58.0974 -58.0974 -58.0972 -58.0972 -58.0972 -58.0972
   -58.0128 -58.0128 -58.0122 -58.0122 -57.8417 -57.8417 -57.8415 -57.8415
   -57.7386 -57.7386 -57.7386 -57.7386 -57.7381 -57.7381 -57.7381 -57.7381
   -29.8453 -29.8280 -29.8280 -29.8112 -14.9966 -14.9901 -14.8524 -14.8524
   -14.8474 -14.8474 -14.7423 -14.7370 -10.5939 -10.5939 -10.5770 -10.5264
   -10.5264 -10.2632 -10.2632  -9.9895  -9.8692  -9.8692  -9.8461  -9.8461
    -7.4968  -6.8007  -6.8007  -6.6409  -6.6409  -6.4599  -6.4599  -6.4013
    -6.4011  -6.3393  -6.2360  -6.0513  -5.9798  -5.9718  -5.9716  -5.9652
    -5.9651  -5.9428  -5.8986  -5.8986  -5.7964  -5.7964  -5.7294  -5.6448
    -0.7423  -0.7423  -0.7282  -0.7282  -0.3887  -0.3811  -0.3745  -0.3745
    -0.2079  -0.2016  -0.2016  -0.1662  -0.0402  -0.0402   0.0398   0.0398
     0.1348   0.1348   0.1385   0.1385   0.3773   0.3773   0.3851   0.3851
     3.6047   4.2171   4.5611   4.5613   5.0961   5.0962   5.1986   5.2755
     5.3192   5.8912   5.9525   5.9525   6.0324   6.0324   6.0539   6.0540
     6.0647   6.1101   6.1463   6.2194   6.2195   6.3174   6.3174   6.4341
     6.4341   6.5961   6.5961   6.5992   6.5992   6.7893   6.7893   6.9053
     6.9053   7.0220   7.0220   7.2626   7.2782   7.2782   7.4162   7.4162
     7.4612   7.4926   7.4991   7.5214   7.5526   7.5527   7.6528   7.6528
     7.6623   7.6623   7.9001   7.9001   7.9544   7.9544   7.9814   7.9872
     7.9872   8.0536   8.0536   8.0551   8.0551   8.1054   8.1054   8.2381
     8.2699   8.2699   8.3272   8.3272   8.6336   8.6336   8.6511   8.6827
     8.6827   8.6953   8.7577   8.7577   8.9244   9.0998   9.0998   9.1799
     9.1799   9.1828   9.1828   9.2245   9.2631   9.2631   9.3198   9.3199
     9.3226   9.3309   9.3309   9.4444   9.4533   9.5153   9.5155   9.5163
     9.5571   9.5573   9.5921   9.6097   9.6671   9.7188   9.7188   9.7219
     9.7359   9.7838   9.8012   9.8012   9.9383   9.9383   9.9502   9.9502
    10.0343  10.0343  10.0990  10.1704  10.1704  10.1717  10.1719  10.5778
    10.6973  10.6973  10.7377  10.7377  11.1473  11.1473  11.2372  11.2372
    11.4028  11.4028  13.0471  13.0471  13.5053  13.5765  13.6241  13.9814
    14.1277  14.1277  14.3304  14.5215  14.6476  15.5761  15.6893  15.6894
    15.7378  15.7630  15.7630  16.2050  16.2050  16.3441  16.4004  16.6695
    16.6695  16.8159  16.8159  16.8997  16.8997  16.9279  16.9367  17.0136
    17.0136  17.0590  17.0590  17.0659  17.1730  17.1730  17.2322  17.4852
    17.6181  17.6181  18.0344  18.0344  18.1496  18.1496  18.2686  18.2686
    18.3172  18.3172

     occupation numbers 
     1.0000   1.0000   1.0000   1.0000   1.0000   1.0000   1.0000   1.0000
     1.0000   1.0000   1.0000   1.0000   1.0000   1.0000   1.0000   1.0000
     1.0000   1.0000   1.0000   1.0000   1.0000   1.0000   1.0000   1.0000
     1.0000   1.0000   1.0000   1.0000   1.0000   1.0000   1.0000   1.0000
     1.0000   1.0000   1.0000   1.0000   1.0000   1.0000   1.0000   1.0000
     1.0000   1.0000   1.0000   1.0000   1.0000   1.0000   1.0000   1.0000
     1.0000   1.0000   1.0000   1.0000   1.0000   1.0000   1.0000   1.0000
     1.0000   1.0000   1.0000   1.0000   1.0000   1.0000   1.0000   1.0000
     1.0000   1.0000   1.0000   1.0000   1.0000   1.0000   1.0000   1.0000
     1.0000   1.0000   1.0000   1.0000   1.0000   1.0000   1.0000   1.0000
     1.0000   1.0000   1.0000   1.0000   1.0000   1.0000   1.0000   1.0000
     1.0000   1.0000   1.0000   1.0000   1.0000   1.0000   1.0000   1.0000
     1.0000   1.0000   1.0000   1.0000   1.0000   1.0000   1.0000   1.0000
     1.0000   1.0000   1.0000   1.0000   1.0000   1.0000   1.0000   1.0000
     1.0000   1.0000   1.0000   1.0000   1.0000   1.0000   1.0000   1.0000
     1.0000   1.0000   1.0000   1.0000   1.0000   1.0000   1.0000   1.0000
     1.0000   1.0000   1.0000   1.0000   1.0000   1.0000   1.0000   1.0000
     1.0000   1.0000   1.0000   1.0000   1.0000   1.0000   1.0000   1.0000
     1.0000   1.0000   1.0000   1.0000   1.0000   1.0000   1.0000   1.0000
     1.0000   1.0000   1.0000   1.0000   1.0000   1.0000   1.0000   1.0000
     1.0000   1.0000   1.0000   1.0000   1.0000   1.0000   1.0000   1.0000
     1.0000   1.0000   1.0000   1.0000   1.0000   1.0000   1.0000   1.0000
     1.0000   1.0000   1.0000   1.0000   1.0000   1.0000   1.0000   1.0000
     1.0000   1.0000   1.0000   1.0000   1.0000   1.0000   1.0000   1.0000
     1.0000   1.0000   1.0000   1.0000   1.0000   1.0000   1.0000   1.0000
     1.0000   1.0000   1.0000   1.0000   1.0000   1.0000   1.0000   1.0000
     1.0000   1.0000   1.0000   1.0000   1.0000   1.0000   1.0000   1.0000
     1.0000   1.0000   1.0000   1.0000   1.0000   1.0000   1.0000   1.0000
     1.0000   1.0000   1.0000   1.0000   1.0000   1.0000   1.0000   1.0000
     1.0000   1.0000   1.0000   1.0000   1.0000   1.0000   1.0000   1.0000
     1.0000   1.0000   1.0000   1.0000   1.0351   1.0351   0.8784   0.8784
     0.0396   0.0396  -0.0000  -0.0000  -0.0000  -0.0000  -0.0000  -0.0000
    -0.0000  -0.0000  -0.0000  -0.0000  -0.0000  -0.0000  -0.0000  -0.0000
    -0.0000  -0.0000  -0.0000  -0.0000  -0.0000  -0.0000  -0.0000  -0.0000
    -0.0000  -0.0000  -0.0000  -0.0000  -0.0000  -0.0000  -0.0000  -0.0000
    -0.0000  -0.0000  -0.0000  -0.0000  -0.0000  -0.0000  -0.0000  -0.0000
    -0.0000  -0.0000  -0.0000  -0.0000  -0.0000  -0.0000  -0.0000  -0.0000
    -0.0000  -0.0000

          k = 0.0000 0.0000-0.3279 ( 35390 PWs)   bands (ev):

  -101.2063-101.2063-101.2060-101.2060-100.5904-100.5904-100.5903-100.5903
  -100.4281-100.4281-100.4276-100.4276 -58.8326 -58.8326 -58.8326 -58.8326
   -58.8322 -58.8322 -58.8322 -58.8322 -58.1353 -58.1353 -58.1351 -58.1351
   -58.0974 -58.0974 -58.0974 -58.0974 -58.0972 -58.0972 -58.0972 -58.0972
   -58.0128 -58.0128 -58.0122 -58.0122 -57.8417 -57.8417 -57.8415 -57.8415
   -57.7386 -57.7386 -57.7386 -57.7386 -57.7381 -57.7381 -57.7381 -57.7381
   -29.8453 -29.8280 -29.8280 -29.8112 -14.9997 -14.9870 -14.8545 -14.8545
   -14.8452 -14.8452 -14.7439 -14.7355 -10.5939 -10.5939 -10.5772 -10.5264
   -10.5264 -10.2633 -10.2633  -9.9896  -9.8692  -9.8692  -9.8461  -9.8461
    -7.4957  -6.8186  -6.8185  -6.6403  -6.6403  -6.4600  -6.4600  -6.3404
    -6.2530  -6.2528  -6.2360  -6.2198  -6.2197  -6.0512  -5.9795  -5.9428
    -5.8993  -5.8993  -5.8474  -5.8473  -5.7964  -5.7964  -5.7295  -5.6453
    -0.7458  -0.7458  -0.7248  -0.7248  -0.3386  -0.3386  -0.3318  -0.3275
    -0.2726  -0.2395  -0.2395  -0.2183  -0.0409  -0.0409   0.0402   0.0402
     0.1308   0.1308   0.1425   0.1425   0.3732   0.3732   0.3893   0.3893
     3.6189   4.1978   4.5634   4.5636   5.0957   5.0958   5.2249   5.2755
     5.3192   5.8700   5.9531   5.9531   6.0304   6.0304   6.0525   6.0526
     6.0934   6.1213   6.1691   6.2304   6.2305   6.3166   6.3166   6.4341
     6.4341   6.5970   6.5970   6.6006   6.6006   6.8514   6.8514   6.9059
     6.9059   7.0239   7.0239   7.2372   7.2372   7.2633   7.2750   7.4152
     7.4152   7.4157   7.4608   7.4994   7.5223   7.5223   7.5311   7.5311
     7.7105   7.7105   7.8915   7.8915   7.9526   7.9526   7.9919   7.9919
     8.0487   8.0487   8.0547   8.0547   8.0940   8.0940   8.1155   8.2434
     8.2434   8.3611   8.3611   8.6396   8.6396   8.6482   8.6524   8.7575
     8.7575   8.8588   8.8589   8.8946   9.0210   9.0214   9.0214   9.1191
     9.1272   9.1272   9.2599   9.2600   9.2917   9.3232   9.3328   9.3328
     9.3617   9.3711   9.3713   9.3768   9.4350   9.4351   9.4383   9.4878
     9.4878   9.5163   9.5229   9.5232   9.5662   9.5662   9.6097   9.6921
     9.6921   9.7219   9.7449   9.8028   9.9338   9.9338   9.9889   9.9891
    10.0334  10.0334  10.0990  10.1880  10.1881  10.2431  10.2431  10.6203
    10.6203  10.6861  10.7366  10.7366  11.1513  11.1513  11.2367  11.2367
    11.3750  11.3750  13.1016  13.1016  13.5053  13.5765  13.9063  14.1389
    14.1389  14.2246  14.3562  14.4172  14.5412  15.5274  15.5627  15.5627
    15.7323  15.7324  15.8020  16.1122  16.1373  16.2055  16.2055  16.4004
    16.5031  16.8143  16.8143  16.9202  16.9202  16.9294  16.9294  16.9312
    16.9312  16.9836  16.9836  17.0605  17.1643  17.1643  17.5788  17.5788
    17.5925  17.5925  17.5958  17.8429  17.8429  18.1831  18.2957  18.2958
    18.5042  18.5042

     occupation numbers 
     1.0000   1.0000   1.0000   1.0000   1.0000   1.0000   1.0000   1.0000
     1.0000   1.0000   1.0000   1.0000   1.0000   1.0000   1.0000   1.0000
     1.0000   1.0000   1.0000   1.0000   1.0000   1.0000   1.0000   1.0000
     1.0000   1.0000   1.0000   1.0000   1.0000   1.0000   1.0000   1.0000
     1.0000   1.0000   1.0000   1.0000   1.0000   1.0000   1.0000   1.0000
     1.0000   1.0000   1.0000   1.0000   1.0000   1.0000   1.0000   1.0000
     1.0000   1.0000   1.0000   1.0000   1.0000   1.0000   1.0000   1.0000
     1.0000   1.0000   1.0000   1.0000   1.0000   1.0000   1.0000   1.0000
     1.0000   1.0000   1.0000   1.0000   1.0000   1.0000   1.0000   1.0000
     1.0000   1.0000   1.0000   1.0000   1.0000   1.0000   1.0000   1.0000
     1.0000   1.0000   1.0000   1.0000   1.0000   1.0000   1.0000   1.0000
     1.0000   1.0000   1.0000   1.0000   1.0000   1.0000   1.0000   1.0000
     1.0000   1.0000   1.0000   1.0000   1.0000   1.0000   1.0000   1.0000
     1.0000   1.0000   1.0000   1.0000   1.0000   1.0000   1.0000   1.0000
     1.0000   1.0000   1.0000   1.0000   1.0000   1.0000   1.0000   1.0000
     1.0000   1.0000   1.0000   1.0000   1.0000   1.0000   1.0000   1.0000
     1.0000   1.0000   1.0000   1.0000   1.0000   1.0000   1.0000   1.0000
     1.0000   1.0000   1.0000   1.0000   1.0000   1.0000   1.0000   1.0000
     1.0000   1.0000   1.0000   1.0000   1.0000   1.0000   1.0000   1.0000
     1.0000   1.0000   1.0000   1.0000   1.0000   1.0000   1.0000   1.0000
     1.0000   1.0000   1.0000   1.0000   1.0000   1.0000   1.0000   1.0000
     1.0000   1.0000   1.0000   1.0000   1.0000   1.0000   1.0000   1.0000
     1.0000   1.0000   1.0000   1.0000   1.0000   1.0000   1.0000   1.0000
     1.0000   1.0000   1.0000   1.0000   1.0000   1.0000   1.0000   1.0000
     1.0000   1.0000   1.0000   1.0000   1.0000   1.0000   1.0000   1.0000
     1.0000   1.0000   1.0000   1.0000   1.0000   1.0000   1.0000   1.0000
     1.0000   1.0000   1.0000   1.0000   1.0000   1.0000   1.0000   1.0000
     1.0000   1.0000   1.0000   1.0000   1.0000   1.0000   1.0000   1.0000
     1.0000   1.0000   1.0000   1.0000   1.0000   1.0000   1.0000   1.0000
     1.0000   1.0000   1.0000   1.0000   1.0000   1.0000   1.0000   1.0000
     1.0000   1.0000   1.0000   1.0000   1.0344   1.0344   0.8805   0.8805
     0.1315   0.1315  -0.0000  -0.0000  -0.0000  -0.0000  -0.0000  -0.0000
    -0.0000  -0.0000  -0.0000  -0.0000  -0.0000  -0.0000  -0.0000  -0.0000
    -0.0000  -0.0000  -0.0000  -0.0000  -0.0000  -0.0000  -0.0000  -0.0000
    -0.0000  -0.0000  -0.0000  -0.0000  -0.0000  -0.0000  -0.0000  -0.0000
    -0.0000  -0.0000  -0.0000  -0.0000  -0.0000  -0.0000  -0.0000  -0.0000
    -0.0000  -0.0000  -0.0000  -0.0000  -0.0000  -0.0000  -0.0000  -0.0000
    -0.0000  -0.0000

     the Fermi energy is    11.3073 ev

!    total energy              =   -6556.70410072 Ry
     estimated scf accuracy    <          7.6E-09 Ry
     smearing contrib. (-TS)   =      -0.00065761 Ry
     internal energy E=F+TS    =   -6556.70344311 Ry

     The total energy is F=E-TS. E is the sum of the following terms:
     one-electron contribution =   -5518.80174092 Ry
     hartree contribution      =    3045.18374722 Ry
     xc contribution           =    -976.02343314 Ry
     ewald contribution        =   -3107.44375877 Ry
     Hubbard energy            =       0.38174251 Ry

     total magnetization       =     0.00 Bohr mag/cell
     absolute magnetization    =     4.37 Bohr mag/cell

     convergence has been achieved in  37 iterations

     Writing all to output data dir ./YBCO6/YBCO6.save/
 
     init_run     :     20.22s CPU     21.23s WALL (       1 calls)
     electrons    :   1412.55s CPU   1482.10s WALL (       1 calls)

     Called by init_run:
     wfcinit      :     15.47s CPU     15.79s WALL (       1 calls)
     wfcinit:atom :      0.05s CPU      0.09s WALL (       4 calls)
     wfcinit:wfcr :      9.96s CPU     10.12s WALL (       4 calls)
     potinit      :      0.39s CPU      0.45s WALL (       1 calls)
     hinit0       :      0.90s CPU      0.93s WALL (       1 calls)

     Called by electrons:
     c_bands      :    858.41s CPU    872.15s WALL (      37 calls)
     sum_band     :    406.34s CPU    437.03s WALL (      37 calls)
     v_of_rho     :     13.66s CPU     14.94s WALL (      38 calls)
     v_h          :      0.63s CPU      0.70s WALL (      38 calls)
     v_xc         :     13.02s CPU     14.24s WALL (      38 calls)
     newd         :    133.07s CPU    157.29s WALL (      38 calls)
     mix_rho      :      3.26s CPU      3.36s WALL (      37 calls)

     Called by c_bands:
     init_us_2    :      8.25s CPU      8.29s WALL (     304 calls)
     init_us_2:cp :      8.24s CPU      8.28s WALL (     304 calls)
     cegterg      :    816.52s CPU    829.98s WALL (     148 calls)

     Called by sum_band:
     sum_band:wei :      0.03s CPU      0.03s WALL (      37 calls)
     sum_band:loo :    117.68s CPU    118.61s WALL (      37 calls)
     sum_band:buf :      1.36s CPU      1.36s WALL (     148 calls)
     sum_band:ini :      4.01s CPU      4.02s WALL (     148 calls)
     sum_band:cal :     47.13s CPU     47.28s WALL (     148 calls)
     sum_band:bec :      0.18s CPU      0.18s WALL (     148 calls)
     addusdens    :    281.10s CPU    309.49s WALL (      37 calls)
                                        0.00s GPU  (      37 calls)
     addusd:skk   :      1.17s CPU      1.63s WALL (     222 calls)
                                        0.00s GPU  (     222 calls)

     Called by *egterg:
     cdiaghg      :     37.20s CPU     38.69s WALL (     515 calls)
     cegterg:over :     79.20s CPU     79.88s WALL (     367 calls)
     cegterg:upda :     44.58s CPU     46.15s WALL (     367 calls)
     cegterg:last :     88.29s CPU     88.68s WALL (     226 calls)
     cdiaghg:chol :      0.79s CPU      0.83s WALL (     515 calls)
     cdiaghg:inve :      0.41s CPU      0.46s WALL (     515 calls)
     cdiaghg:para :      7.80s CPU      8.53s WALL (    1030 calls)
     h_psi        :    433.15s CPU    439.08s WALL (     519 calls)
     s_psi        :    106.52s CPU    106.77s WALL (     523 calls)
     g_psi        :      1.39s CPU      1.40s WALL (     367 calls)

     Called by h_psi:
     h_psi:calbec :    103.36s CPU    103.73s WALL (     519 calls)
     vloc_psi     :    188.01s CPU    191.02s WALL (     519 calls)
     add_vuspsi   :    107.72s CPU    107.74s WALL (     519 calls)
     vhpsi        :     31.49s CPU     32.02s WALL (     519 calls)

     General routines
     calbec       :    161.45s CPU    162.53s WALL (    1338 calls)
     fft          :      7.68s CPU      8.65s WALL (     944 calls)
     ffts         :      0.20s CPU      0.22s WALL (     150 calls)
     fftw         :    125.20s CPU    127.20s WALL (  229608 calls)
     interpolate  :      0.83s CPU      0.94s WALL (      76 calls)
     davcio       :      0.00s CPU      0.01s WALL (       4 calls)
 
     Parallel routines

     Hubbard U routines
     new_ns       :      4.22s CPU      4.28s WALL (      37 calls)
     vhpsi        :     31.49s CPU     32.02s WALL (     519 calls)
 
     PWSCF        :  23m53.11s CPU  25m 4.06s WALL

 
   This run was terminated on:  22:19:17   1Jan2024            

=------------------------------------------------------------------------------=
   JOB DONE.
=------------------------------------------------------------------------------=
