
     Program PWSCF v.7.2 starts on  9Dec2023 at 15:22:46 

     This program is part of the open-source Quantum ESPRESSO suite
     for quantum simulation of materials; please cite
         "P. Giannozzi et al., J. Phys.:Condens. Matter 21 395502 (2009);
         "P. Giannozzi et al., J. Phys.:Condens. Matter 29 465901 (2017);
         "P. Giannozzi et al., J. Chem. Phys. 152 154105 (2020);
          URL http://www.quantum-espresso.org", 
     in publications or presentations arising from this work. More details at
     http://www.quantum-espresso.org/quote

     Parallel version (MPI), running on     4 processors

     MPI processes distributed on     1 nodes
     14631 MiB available memory on the printing compute node when the environment starts
 
     Waiting for input...
     Reading input from standard input

     Current dimensions of program PWSCF are:
     Max number of different atomic species (ntypx) = 10
     Max number of k-points (npk) =  40000
     Max angular momentum in pseudopotentials (lmaxx) =  4
 
     R & G space division:  proc/nbgrp/npool/nimage =       4
     Subspace diagonalization in iterative solution of the eigenvalue problem:
     a serial algorithm will be used

 
     Parallelization info
     --------------------
     sticks:   dense  smooth     PW     G-vecs:    dense   smooth      PW
     Min         756     378    107                95454    33745    5085
     Max         757     383    108                95467    33746    5090
     Sum        3027    1519    429               381847   134983   20347
 
     Using Slab Decomposition
 


     bravais-lattice index     =            8
     lattice parameter (alat)  =       7.2246  a.u.
     unit-cell volume          =    1170.9306 (a.u.)^3
     number of atoms/cell      =           12
     number of atomic types    =            4
     number of electrons       =       124.00
     number of Kohn-Sham states=           74
     kinetic-energy cutoff     =      90.0000  Ry
     charge density cutoff     =     720.0000  Ry
     scf convergence threshold =      1.0E-08
     mixing beta               =       0.1000
     number of iterations used =            8  plain     mixing
     energy convergence thresh.=      1.0E-04
     force convergence thresh. =      1.0E-03
     press convergence thresh. =      5.0E-01
     Exchange-correlation= SLA  PW   PBE  PBE
                           (   1   4   3   4   0   0   0)
     nstep                     =           50


     celldm(1)=   7.224612  celldm(2)=   1.016086  celldm(3)=   3.056025
     celldm(4)=   0.000000  celldm(5)=   0.000000  celldm(6)=   0.000000

     crystal axes: (cart. coord. in units of alat)
               a(1) = (   1.000000   0.000000   0.000000 )  
               a(2) = (   0.000000   1.016086   0.000000 )  
               a(3) = (   0.000000   0.000000   3.056025 )  

     reciprocal axes: (cart. coord. in units 2 pi/alat)
               b(1) = (  1.000000  0.000000  0.000000 )  
               b(2) = (  0.000000  0.984168  0.000000 )  
               b(3) = (  0.000000  0.000000  0.327222 )  


     PseudoPot. # 1 for Y  read from file:
     ~/q-e/pseudo/all_pbe_UPF_v1.5/y_pbe_v1.4.uspp.F.UPF
     MD5 check sum: Not computed, couldn't open file
     Pseudo is Ultrasoft + core correction, Zval = 11.0
     Generated by new atomic code, or converted to UPF format
     Using radial grid of  885 points,  6 beta functions with: 
                l(1) =   0
                l(2) =   0
                l(3) =   1
                l(4) =   1
                l(5) =   2
                l(6) =   2
     Q(r) pseudized with  8 coefficients,  rinner =    1.200   1.200   1.200
                                                       1.200   1.200

     PseudoPot. # 2 for Ba read from file:
     ~/q-e/pseudo/all_pbe_UPF_v1.5/ba_pbe_v1.uspp.F.UPF
     MD5 check sum: Not computed, couldn't open file
     Pseudo is Ultrasoft + core correction, Zval = 10.0
     Generated by new atomic code, or converted to UPF format
     Using radial grid of  907 points,  7 beta functions with: 
                l(1) =   0
                l(2) =   0
                l(3) =   1
                l(4) =   1
                l(5) =   2
                l(6) =   2
                l(7) =   3
     Q(r) pseudized with  6 coefficients,  rinner =    1.700   1.700   1.700
                                                       1.700   1.700   1.700
                                                       1.700

     PseudoPot. # 3 for Cu read from file:
     ~/q-e/pseudo/all_pbe_UPF_v1.5/cu_pbe_v1.2.uspp.F.UPF
     MD5 check sum: Not computed, couldn't open file
     Pseudo is Ultrasoft + core correction, Zval = 19.0
     Generated by new atomic code, or converted to UPF format
     Using radial grid of  867 points,  6 beta functions with: 
                l(1) =   0
                l(2) =   0
                l(3) =   1
                l(4) =   1
                l(5) =   2
                l(6) =   2
     Q(r) pseudized with  8 coefficients,  rinner =    1.150   1.150   1.150
                                                       1.150   1.150

     PseudoPot. # 4 for O  read from file:
     ~/q-e/pseudo/all_pbe_UPF_v1.5/o_pbe_v1.2.uspp.F.UPF
     MD5 check sum: Not computed, couldn't open file
     Pseudo is Ultrasoft + core correction, Zval =  6.0
     Generated by new atomic code, or converted to UPF format
     Using radial grid of  737 points,  5 beta functions with: 
                l(1) =   0
                l(2) =   0
                l(3) =   1
                l(4) =   1
                l(5) =   2
     Q(r) pseudized with  8 coefficients,  rinner =    0.900   0.900   0.900
                                                       0.900   0.900

     atomic species   valence    mass     pseudopotential
     Y                11.00    88.90584     Y ( 1.00)
     Ba               10.00   137.32700     Ba( 1.00)
     Cu               19.00    63.54600     Cu( 1.00)
     O                 6.00    15.99900     O ( 1.00)

      8 Sym. Ops., with inversion, found


                                    s                        frac. trans.

      isym =  1     identity                                     

 cryst.   s( 1) = (     1          0          0      )
                  (     0          1          0      )
                  (     0          0          1      )

 cart.    s( 1) = (  1.0000000  0.0000000  0.0000000 )
                  (  0.0000000  1.0000000  0.0000000 )
                  (  0.0000000  0.0000000  1.0000000 )


      isym =  2     180 deg rotation - cart. axis [0,0,1]        

 cryst.   s( 2) = (    -1          0          0      )
                  (     0         -1          0      )
                  (     0          0          1      )

 cart.    s( 2) = ( -1.0000000  0.0000000  0.0000000 )
                  (  0.0000000 -1.0000000  0.0000000 )
                  (  0.0000000  0.0000000  1.0000000 )


      isym =  3     180 deg rotation - cart. axis [0,1,0]        

 cryst.   s( 3) = (    -1          0          0      )
                  (     0          1          0      )
                  (     0          0         -1      )

 cart.    s( 3) = ( -1.0000000  0.0000000  0.0000000 )
                  (  0.0000000  1.0000000  0.0000000 )
                  (  0.0000000  0.0000000 -1.0000000 )


      isym =  4     180 deg rotation - cart. axis [1,0,0]        

 cryst.   s( 4) = (     1          0          0      )
                  (     0         -1          0      )
                  (     0          0         -1      )

 cart.    s( 4) = (  1.0000000  0.0000000  0.0000000 )
                  (  0.0000000 -1.0000000  0.0000000 )
                  (  0.0000000  0.0000000 -1.0000000 )


      isym =  5     inversion                                    

 cryst.   s( 5) = (    -1          0          0      )
                  (     0         -1          0      )
                  (     0          0         -1      )

 cart.    s( 5) = ( -1.0000000  0.0000000  0.0000000 )
                  (  0.0000000 -1.0000000  0.0000000 )
                  (  0.0000000  0.0000000 -1.0000000 )


      isym =  6     inv. 180 deg rotation - cart. axis [0,0,1]   

 cryst.   s( 6) = (     1          0          0      )
                  (     0          1          0      )
                  (     0          0         -1      )

 cart.    s( 6) = (  1.0000000  0.0000000  0.0000000 )
                  (  0.0000000  1.0000000  0.0000000 )
                  (  0.0000000  0.0000000 -1.0000000 )


      isym =  7     inv. 180 deg rotation - cart. axis [0,1,0]   

 cryst.   s( 7) = (     1          0          0      )
                  (     0         -1          0      )
                  (     0          0          1      )

 cart.    s( 7) = (  1.0000000  0.0000000  0.0000000 )
                  (  0.0000000 -1.0000000  0.0000000 )
                  (  0.0000000  0.0000000  1.0000000 )


      isym =  8     inv. 180 deg rotation - cart. axis [1,0,0]   

 cryst.   s( 8) = (    -1          0          0      )
                  (     0          1          0      )
                  (     0          0          1      )

 cart.    s( 8) = ( -1.0000000  0.0000000  0.0000000 )
                  (  0.0000000  1.0000000  0.0000000 )
                  (  0.0000000  0.0000000  1.0000000 )


     point group D_2h (mmm) 
     there are  8 classes
     the character table:

       E     C2    C2'   C2''  i     s_v   s_v'  s_v''
A_g    1.00  1.00  1.00  1.00  1.00  1.00  1.00  1.00
B_1g   1.00  1.00 -1.00 -1.00  1.00  1.00 -1.00 -1.00
B_2g   1.00 -1.00  1.00 -1.00  1.00 -1.00  1.00 -1.00
B_3g   1.00 -1.00 -1.00  1.00  1.00 -1.00 -1.00  1.00
A_u    1.00  1.00  1.00  1.00 -1.00 -1.00 -1.00 -1.00
B_1u   1.00  1.00 -1.00 -1.00 -1.00 -1.00  1.00  1.00
B_2u   1.00 -1.00  1.00 -1.00 -1.00  1.00 -1.00  1.00
B_3u   1.00 -1.00 -1.00  1.00 -1.00  1.00  1.00 -1.00

     the symmetry operations in each class and the name of the first element:

     E        1
          identity                                               
     C2       2
          180 deg rotation - cart. axis [0,0,1]                  
     C2'      4
          180 deg rotation - cart. axis [1,0,0]                  
     C2''     3
          180 deg rotation - cart. axis [0,1,0]                  
     i        5
          inversion                                              
     s_v      6
          inv. 180 deg rotation - cart. axis [0,0,1]             
     s_v'     8
          inv. 180 deg rotation - cart. axis [1,0,0]             
     s_v''    7
          inv. 180 deg rotation - cart. axis [0,1,0]             

   Cartesian axes

     site n.     atom                  positions (alat units)
         1        Y      tau(   1) = (   0.5000000   0.5080432   1.5280126  )
         2        Ba     tau(   2) = (   0.5000000   0.5080432   0.5620947  )
         3        Ba     tau(   3) = (   0.5000000   0.5080432   2.4939305  )
         4        Cu     tau(   4) = (   0.0000000   0.0000000   0.0000000  )
         5        Cu     tau(   5) = (   0.0000000   0.0000000   1.0849195  )
         6        Cu     tau(   6) = (   0.0000000   0.0000000   1.9711057  )
         7        O      tau(   7) = (   0.5000000   0.0000000   1.1557582  )
         8        O      tau(   8) = (   0.5000000   0.0000000   1.9002670  )
         9        O      tau(   9) = (   0.0000000   0.5080432   1.1519076  )
        10        O      tau(  10) = (   0.0000000   0.5080432   1.9041176  )
        11        O      tau(  11) = (   0.0000000   0.0000000   0.4840744  )
        12        O      tau(  12) = (   0.0000000   0.0000000   2.5719508  )

   Crystallographic axes

     site n.     atom                  positions (cryst. coord.)
         1        Y      tau(   1) = (  0.5000000  0.5000000  0.5000000  )
         2        Ba     tau(   2) = (  0.5000000  0.5000000  0.1839300  )
         3        Ba     tau(   3) = (  0.5000000  0.5000000  0.8160700  )
         4        Cu     tau(   4) = (  0.0000000  0.0000000  0.0000000  )
         5        Cu     tau(   5) = (  0.0000000  0.0000000  0.3550100  )
         6        Cu     tau(   6) = (  0.0000000  0.0000000  0.6449900  )
         7        O      tau(   7) = (  0.5000000  0.0000000  0.3781900  )
         8        O      tau(   8) = (  0.5000000  0.0000000  0.6218100  )
         9        O      tau(   9) = (  0.0000000  0.5000000  0.3769300  )
        10        O      tau(  10) = (  0.0000000  0.5000000  0.6230700  )
        11        O      tau(  11) = (  0.0000000  0.0000000  0.1584000  )
        12        O      tau(  12) = (  0.0000000  0.0000000  0.8416000  )

     number of k points=     4  Methfessel-Paxton smearing, width (Ry)=  0.0200
                       cart. coord. in units 2pi/alat
        k(    1) = (   0.0000000   0.0000000   0.0000000), wk =   0.5000000
        k(    2) = (   0.0000000  -0.4920841   0.0000000), wk =   0.5000000
        k(    3) = (  -0.5000000   0.0000000   0.0000000), wk =   0.5000000
        k(    4) = (  -0.5000000  -0.4920841   0.0000000), wk =   0.5000000

                       cryst. coord.
        k(    1) = (   0.0000000   0.0000000   0.0000000), wk =   0.5000000
        k(    2) = (   0.0000000  -0.5000000   0.0000000), wk =   0.5000000
        k(    3) = (  -0.5000000   0.0000000   0.0000000), wk =   0.5000000
        k(    4) = (  -0.5000000  -0.5000000   0.0000000), wk =   0.5000000

     Dense  grid:   381847 G-vectors     FFT dimensions: (  64,  64, 192)

     Smooth grid:   134983 G-vectors     FFT dimensions: (  45,  45, 135)

     Dynamical RAM for                 wfc:       4.77 MB

     Dynamical RAM for     wfc (w. buffer):      23.83 MB

     Dynamical RAM for           str. fact:       5.83 MB

     Dynamical RAM for           local pot:       0.00 MB

     Dynamical RAM for          nlocal pot:      12.88 MB

     Dynamical RAM for                qrad:      32.14 MB

     Dynamical RAM for          rho,v,vnew:       8.87 MB

     Dynamical RAM for               rhoin:       2.96 MB

     Dynamical RAM for            rho*nmix:      23.31 MB

     Dynamical RAM for           G-vectors:       5.72 MB

     Dynamical RAM for          h,s,v(r/c):       1.00 MB

     Dynamical RAM for          <psi|beta>:       0.23 MB

     Dynamical RAM for                 psi:       9.53 MB

     Dynamical RAM for                hpsi:       9.53 MB

     Dynamical RAM for                spsi:       9.53 MB

     Dynamical RAM for      wfcinit/wfcrot:      13.37 MB

     Dynamical RAM for           addusdens:     521.50 MB

     Dynamical RAM for          addusforce:     536.84 MB

     Dynamical RAM for         addusstress:     552.09 MB

     Estimated static dynamical RAM per process >     107.01 MB

     Estimated max dynamical RAM per process >     682.41 MB

     Estimated total dynamical RAM >       2.67 GB

     Initial potential from superposition of free atoms

     starting charge     120.9655, renormalised to     124.0000

     negative rho (up, down):  1.936E-01 0.000E+00
     Starting wfcs are  102 randomized atomic wfcs

     total cpu time spent up to now is        2.4 secs

     Self-consistent Calculation

     iteration #  1     ecut=    90.00 Ry     beta= 0.10
     Davidson diagonalization with overlap

---- Real-time Memory Report at c_bands before calling an iterative solver
           692 MiB given to the printing process from OS
             0 MiB allocation reported by mallinfo(arena+hblkhd)
         13991 MiB available memory on the node where the printing process lives
------------------
     ethr =  1.00E-02,  avg # of iterations =  2.2

     negative rho (up, down):  1.914E-01 0.000E+00

     total cpu time spent up to now is        5.4 secs

     total energy              =   -1639.43649215 Ry
     estimated scf accuracy    <       1.84008106 Ry

     iteration #  2     ecut=    90.00 Ry     beta= 0.10
     Davidson diagonalization with overlap

---- Real-time Memory Report at c_bands before calling an iterative solver
           763 MiB given to the printing process from OS
             0 MiB allocation reported by mallinfo(arena+hblkhd)
         13949 MiB available memory on the node where the printing process lives
------------------
     ethr =  1.48E-03,  avg # of iterations =  2.0

     negative rho (up, down):  1.865E-01 0.000E+00

     total cpu time spent up to now is        8.3 secs

     total energy              =   -1639.21254362 Ry
     estimated scf accuracy    <       0.94281172 Ry

     iteration #  3     ecut=    90.00 Ry     beta= 0.10
     Davidson diagonalization with overlap

---- Real-time Memory Report at c_bands before calling an iterative solver
           768 MiB given to the printing process from OS
             0 MiB allocation reported by mallinfo(arena+hblkhd)
         13940 MiB available memory on the node where the printing process lives
------------------
     ethr =  7.60E-04,  avg # of iterations =  2.0

     negative rho (up, down):  1.844E-01 0.000E+00

     total cpu time spent up to now is       11.4 secs

     total energy              =   -1639.29773027 Ry
     estimated scf accuracy    <       0.17013737 Ry

     iteration #  4     ecut=    90.00 Ry     beta= 0.10
     Davidson diagonalization with overlap

---- Real-time Memory Report at c_bands before calling an iterative solver
           769 MiB given to the printing process from OS
             0 MiB allocation reported by mallinfo(arena+hblkhd)
         13934 MiB available memory on the node where the printing process lives
------------------
     ethr =  1.37E-04,  avg # of iterations =  7.2

     negative rho (up, down):  1.782E-01 0.000E+00

     total cpu time spent up to now is       14.8 secs

     total energy              =   -1639.26220980 Ry
     estimated scf accuracy    <       0.10485625 Ry

     iteration #  5     ecut=    90.00 Ry     beta= 0.10
     Davidson diagonalization with overlap

---- Real-time Memory Report at c_bands before calling an iterative solver
           772 MiB given to the printing process from OS
             0 MiB allocation reported by mallinfo(arena+hblkhd)
         13923 MiB available memory on the node where the printing process lives
------------------
     ethr =  8.46E-05,  avg # of iterations =  6.2

     negative rho (up, down):  1.781E-01 0.000E+00

     total cpu time spent up to now is       18.1 secs

     total energy              =   -1639.28085258 Ry
     estimated scf accuracy    <       0.03251332 Ry

     iteration #  6     ecut=    90.00 Ry     beta= 0.10
     Davidson diagonalization with overlap

---- Real-time Memory Report at c_bands before calling an iterative solver
           773 MiB given to the printing process from OS
             0 MiB allocation reported by mallinfo(arena+hblkhd)
         13914 MiB available memory on the node where the printing process lives
------------------
     ethr =  2.62E-05,  avg # of iterations =  3.0

     negative rho (up, down):  1.780E-01 0.000E+00

     total cpu time spent up to now is       21.3 secs

     total energy              =   -1639.27494027 Ry
     estimated scf accuracy    <       0.03145804 Ry

     iteration #  7     ecut=    90.00 Ry     beta= 0.10
     Davidson diagonalization with overlap

---- Real-time Memory Report at c_bands before calling an iterative solver
           774 MiB given to the printing process from OS
             0 MiB allocation reported by mallinfo(arena+hblkhd)
         13905 MiB available memory on the node where the printing process lives
------------------
     ethr =  2.54E-05,  avg # of iterations =  2.2

     negative rho (up, down):  1.751E-01 0.000E+00

     total cpu time spent up to now is       24.8 secs

     total energy              =   -1639.27762918 Ry
     estimated scf accuracy    <       0.01928330 Ry

     iteration #  8     ecut=    90.00 Ry     beta= 0.10
     Davidson diagonalization with overlap

---- Real-time Memory Report at c_bands before calling an iterative solver
           775 MiB given to the printing process from OS
             0 MiB allocation reported by mallinfo(arena+hblkhd)
         13897 MiB available memory on the node where the printing process lives
------------------
     ethr =  1.56E-05,  avg # of iterations =  5.0

     negative rho (up, down):  1.737E-01 0.000E+00

     total cpu time spent up to now is       28.6 secs

     total energy              =   -1639.26595701 Ry
     estimated scf accuracy    <       0.06392571 Ry

     iteration #  9     ecut=    90.00 Ry     beta= 0.10
     Davidson diagonalization with overlap

---- Real-time Memory Report at c_bands before calling an iterative solver
           777 MiB given to the printing process from OS
             0 MiB allocation reported by mallinfo(arena+hblkhd)
         13891 MiB available memory on the node where the printing process lives
------------------
     ethr =  1.56E-05,  avg # of iterations =  6.0

     negative rho (up, down):  1.733E-01 0.000E+00

     total cpu time spent up to now is       32.4 secs

     total energy              =   -1639.27895836 Ry
     estimated scf accuracy    <       0.00712861 Ry

     iteration # 10     ecut=    90.00 Ry     beta= 0.10
     Davidson diagonalization with overlap

---- Real-time Memory Report at c_bands before calling an iterative solver
           778 MiB given to the printing process from OS
             0 MiB allocation reported by mallinfo(arena+hblkhd)
         13883 MiB available memory on the node where the printing process lives
------------------
     ethr =  5.75E-06,  avg # of iterations =  3.5

     negative rho (up, down):  1.732E-01 0.000E+00

     total cpu time spent up to now is       36.2 secs

     total energy              =   -1639.27708904 Ry
     estimated scf accuracy    <       0.01142284 Ry

     iteration # 11     ecut=    90.00 Ry     beta= 0.10
     Davidson diagonalization with overlap

---- Real-time Memory Report at c_bands before calling an iterative solver
           779 MiB given to the printing process from OS
             0 MiB allocation reported by mallinfo(arena+hblkhd)
         13878 MiB available memory on the node where the printing process lives
------------------
     ethr =  5.75E-06,  avg # of iterations =  2.0

     negative rho (up, down):  1.731E-01 0.000E+00

     total cpu time spent up to now is       39.7 secs

     total energy              =   -1639.27742785 Ry
     estimated scf accuracy    <       0.00429114 Ry

     iteration # 12     ecut=    90.00 Ry     beta= 0.10
     Davidson diagonalization with overlap

---- Real-time Memory Report at c_bands before calling an iterative solver
           779 MiB given to the printing process from OS
             0 MiB allocation reported by mallinfo(arena+hblkhd)
         13881 MiB available memory on the node where the printing process lives
------------------
     ethr =  3.46E-06,  avg # of iterations =  1.8

     negative rho (up, down):  1.730E-01 0.000E+00

     total cpu time spent up to now is       43.1 secs

     total energy              =   -1639.27734649 Ry
     estimated scf accuracy    <       0.00409671 Ry

     iteration # 13     ecut=    90.00 Ry     beta= 0.10
     Davidson diagonalization with overlap

---- Real-time Memory Report at c_bands before calling an iterative solver
           779 MiB given to the printing process from OS
             0 MiB allocation reported by mallinfo(arena+hblkhd)
         13885 MiB available memory on the node where the printing process lives
------------------
     ethr =  3.30E-06,  avg # of iterations =  1.5

     negative rho (up, down):  1.730E-01 0.000E+00

     total cpu time spent up to now is       46.5 secs

     total energy              =   -1639.27681097 Ry
     estimated scf accuracy    <       0.00360814 Ry

     iteration # 14     ecut=    90.00 Ry     beta= 0.10
     Davidson diagonalization with overlap

---- Real-time Memory Report at c_bands before calling an iterative solver
           779 MiB given to the printing process from OS
             0 MiB allocation reported by mallinfo(arena+hblkhd)
         13885 MiB available memory on the node where the printing process lives
------------------
     ethr =  2.91E-06,  avg # of iterations =  3.2

     negative rho (up, down):  1.727E-01 0.000E+00

     total cpu time spent up to now is       50.0 secs

     total energy              =   -1639.27707457 Ry
     estimated scf accuracy    <       0.00027148 Ry

     iteration # 15     ecut=    90.00 Ry     beta= 0.10
     Davidson diagonalization with overlap

---- Real-time Memory Report at c_bands before calling an iterative solver
           779 MiB given to the printing process from OS
             0 MiB allocation reported by mallinfo(arena+hblkhd)
         13884 MiB available memory on the node where the printing process lives
------------------
     c_bands:  1 eigenvalues not converged
     ethr =  2.19E-07,  avg # of iterations =  6.5

     negative rho (up, down):  1.726E-01 0.000E+00

     total cpu time spent up to now is       54.0 secs

     total energy              =   -1639.27687312 Ry
     estimated scf accuracy    <       0.00149050 Ry

     iteration # 16     ecut=    90.00 Ry     beta= 0.10
     Davidson diagonalization with overlap

---- Real-time Memory Report at c_bands before calling an iterative solver
           779 MiB given to the printing process from OS
             0 MiB allocation reported by mallinfo(arena+hblkhd)
         13881 MiB available memory on the node where the printing process lives
------------------
     ethr =  2.19E-07,  avg # of iterations =  4.0

     negative rho (up, down):  1.726E-01 0.000E+00

     total cpu time spent up to now is       75.7 secs

     total energy              =   -1639.27713799 Ry
     estimated scf accuracy    <       0.00112903 Ry

     iteration # 17     ecut=    90.00 Ry     beta= 0.10
     Davidson diagonalization with overlap

---- Real-time Memory Report at c_bands before calling an iterative solver
           779 MiB given to the printing process from OS
             0 MiB allocation reported by mallinfo(arena+hblkhd)
         13878 MiB available memory on the node where the printing process lives
------------------
     ethr =  2.19E-07,  avg # of iterations =  1.0
[mpiexec@DESKTOP-9GB854E] Sending Ctrl-C to processes as requested
[mpiexec@DESKTOP-9GB854E] Press Ctrl-C again to force abort
